 Q-Chem 6.2, Q-Chem, Inc., Pleasanton, CA (2024)
 Q-Chem 6.2.0 for Intel X86 EM64T Linux

User input:
--------------------------------------------------------------
$comment
TDDFT calculation of cyanidin Q1 structure
nprocs=16
mem=64gb
$end

$molecule
0 1
C    0.0194479   -1.7885901   -3.7017148
C    0.0433046   -0.6166214   -4.4699648
C    0.0542113    0.6134549   -3.8436343
C    0.0416311    0.7026609   -2.4322121
C    0.0165469   -0.5010989   -1.7148800
C    0.0051813   -1.7484788   -2.3136826
C    0.0522305    1.9087801   -1.6954050
C    0.0367056    1.9071363   -0.3287809
C    0.0086541    0.6727498    0.3904426
O    0.0019745   -0.4593951   -0.3554930
C   -0.0140055    0.4416214    1.7831578
C   -0.0451551   -0.9024812    2.2711360
C   -0.0669084   -1.1787165    3.6036351
C   -0.0619324   -0.1304163    4.6077659
C   -0.0303278    1.2048242    4.0928780
C   -0.0074180    1.4835565    2.7550401
O    0.0089682   -3.0174010   -4.2910584
H    0.0527585   -0.6776785   -5.5519462
O    0.0770766    1.7862179   -4.5333068
H   -0.0145435   -2.6532234   -1.7233682
H    0.0731740    2.8582984   -2.2151945
O    0.0464135    3.0654219    0.3887800
H   -0.0518209   -1.7281345    1.5724168
O   -0.0953516   -2.4603419    4.1002429
O   -0.0831707   -0.3969441    5.8454080
H   -0.0246319    2.0120949    4.8155852
H    0.0162093    2.5115063    2.4378627
H    0.0209405   -2.9268237   -5.2549062
H    0.0780497    1.6113417   -5.4854546
H    0.0669177    3.8214661   -0.2161751
H   -0.0924100   -3.0904559    3.3657365
$end

$rem
BASIS  =  def2-ma-TZVP
MEM_STATIC  =  2000
MEM_TOTAL  =  64000
METHOD  =  CAM-B3LYP
SOLVENT_METHOD = pcm
SYMMETRY_IGNORE  =  1
CIS_N_ROOTS = 7
CIS_SINGLETS = true
CIS_TRIPLETS = true
CISTR_PRINT = true
RPA = true
PRINT_ORBITALS = true
SCF_PRINT = 1
SCF_FINAL_PRINT = 2
PRINT_GENERAL_BASIS = true
CISTR_PRINT = true
PRINT_RADII_GYRE = true
MULTIPOLE_ORDER = 5
CIS_AMPL_PRINT = 5
CIS_AMPL_ANAL = true
STATE_ANALYSIS = true
$end

$pcm
Theory   CPCM
Method   SWIG
Solver   Inversion
Radii    Bondi
$end

$solvent
Dielectric         78.39
OpticalDielectric  1.777849
$end

--------------------------------------------------------------

             Standard Nuclear Orientation (Angstroms)
    I     Atom           X                Y                Z
 ----------------------------------------------------------------
    1      C       0.0194479000    -1.7885901000    -3.7017148000
    2      C       0.0433046000    -0.6166214000    -4.4699648000
    3      C       0.0542113000     0.6134549000    -3.8436343000
    4      C       0.0416311000     0.7026609000    -2.4322121000
    5      C       0.0165469000    -0.5010989000    -1.7148800000
    6      C       0.0051813000    -1.7484788000    -2.3136826000
    7      C       0.0522305000     1.9087801000    -1.6954050000
    8      C       0.0367056000     1.9071363000    -0.3287809000
    9      C       0.0086541000     0.6727498000     0.3904426000
   10      O       0.0019745000    -0.4593951000    -0.3554930000
   11      C      -0.0140055000     0.4416214000     1.7831578000
   12      C      -0.0451551000    -0.9024812000     2.2711360000
   13      C      -0.0669084000    -1.1787165000     3.6036351000
   14      C      -0.0619324000    -0.1304163000     4.6077659000
   15      C      -0.0303278000     1.2048242000     4.0928780000
   16      C      -0.0074180000     1.4835565000     2.7550401000
   17      O       0.0089682000    -3.0174010000    -4.2910584000
   18      H       0.0527585000    -0.6776785000    -5.5519462000
   19      O       0.0770766000     1.7862179000    -4.5333068000
   20      H      -0.0145435000    -2.6532234000    -1.7233682000
   21      H       0.0731740000     2.8582984000    -2.2151945000
   22      O       0.0464135000     3.0654219000     0.3887800000
   23      H      -0.0518209000    -1.7281345000     1.5724168000
   24      O      -0.0953516000    -2.4603419000     4.1002429000
   25      O      -0.0831707000    -0.3969441000     5.8454080000
   26      H      -0.0246319000     2.0120949000     4.8155852000
   27      H       0.0162093000     2.5115063000     2.4378627000
   28      H       0.0209405000    -2.9268237000    -5.2549062000
   29      H       0.0780497000     1.6113417000    -5.4854546000
   30      H       0.0669177000     3.8214661000    -0.2161751000
   31      H      -0.0924100000    -3.0904559000     3.3657365000
 ----------------------------------------------------------------

   16   -1028.9091632154      5.14e-09  Convergence criterion met
 Total energy = -1028.90916322

             TDDFT Excitation Energies
 ---------------------------------------------------

 Excited state   1: excitation energy (eV) =        1.0598
 Total energy for state   1:                 -1028.87021756 au
    Multiplicity: Triplet
    Trans. Mom.:  0.0000 X   0.0000 Y   0.0000 Z
    Strength   :     0.0000000000
    X: D(   69) --> V(    1) amplitude =  0.0831
    X: D(   69) --> V(   11) amplitude = -0.0718
    X: D(   70) --> V(    1) amplitude = -0.0768
    X: D(   70) --> V(    2) amplitude = -0.0888
    X: D(   73) --> V(    2) amplitude = -0.1011
    X: D(   73) --> V(    4) amplitude =  0.0876
    X: D(   74) --> V(    1) amplitude =  1.0365
    Y: D(   74) --> V(    1) amplitude =  0.3625

 Excited state   2: excitation energy (eV) =        2.4871
 Total energy for state   2:                 -1028.81776413 au
    Multiplicity: Triplet
    Trans. Mom.:  0.0000 X   0.0000 Y   0.0000 Z
    Strength   :     0.0000000000
    X: D(   69) --> V(    1) amplitude =  0.2066
    X: D(   69) --> V(   11) amplitude = -0.0843
    X: D(   70) --> V(    1) amplitude =  0.1815
    X: D(   70) --> V(    2) amplitude = -0.0789
    X: D(   70) --> V(    4) amplitude = -0.0856
    X: D(   72) --> V(    1) amplitude = -0.0953
    X: D(   72) --> V(    4) amplitude =  0.1012
    X: D(   73) --> V(    1) amplitude =  0.8020
    Y: D(   73) --> V(    1) amplitude =  0.1049
    X: D(   73) --> V(    2) amplitude = -0.1390
    X: D(   73) --> V(    4) amplitude =  0.1003
    X: D(   74) --> V(    2) amplitude = -0.4082
    Y: D(   74) --> V(    2) amplitude = -0.0753
    X: D(   74) --> V(    4) amplitude =  0.1364
    X: D(   74) --> V(   11) amplitude = -0.0903

 Excited state   3: excitation energy (eV) =        2.6122
 Total energy for state   3:                 -1028.81316842 au
    Multiplicity: Singlet
    Trans. Mom.:  0.0561 X   0.0802 Y  -4.2953 Z
    Strength   :     1.1813240733
    X: D(   73) --> V(    1) amplitude =  0.1131
    X: D(   74) --> V(    1) amplitude =  0.9843
    Y: D(   74) --> V(    1) amplitude = -0.0795

 Excited state   4: excitation energy (eV) =        3.0309
 Total energy for state   4:                 -1028.79778055 au
    Multiplicity: Triplet
    Trans. Mom.:  0.0000 X   0.0000 Y   0.0000 Z
    Strength   :     0.0000000000
    X: D(   70) --> V(    1) amplitude =  0.2006
    X: D(   70) --> V(    7) amplitude =  0.1082
    X: D(   72) --> V(    1) amplitude =  0.8385
    Y: D(   72) --> V(    1) amplitude =  0.0724
    X: D(   72) --> V(    2) amplitude =  0.1866
    X: D(   72) --> V(    4) amplitude = -0.1055
    X: D(   72) --> V(   11) amplitude =  0.0983
    X: D(   73) --> V(    2) amplitude = -0.1012
    X: D(   73) --> V(    4) amplitude =  0.1281
    X: D(   73) --> V(    7) amplitude =  0.0955
    X: D(   74) --> V(    2) amplitude = -0.1503
    X: D(   74) --> V(    4) amplitude = -0.0987
    X: D(   74) --> V(    7) amplitude = -0.2801

 Excited state   5: excitation energy (eV) =        3.5187
 Total energy for state   5:                 -1028.77985382 au
    Multiplicity: Triplet
    Trans. Mom.:  0.0000 X   0.0000 Y   0.0000 Z
    Strength   :     0.0000000000
    X: D(   71) --> V(    1) amplitude =  0.8981
    X: D(   71) --> V(    2) amplitude =  0.2591
    X: D(   71) --> V(    4) amplitude = -0.1774
    X: D(   71) --> V(   11) amplitude =  0.2306
    X: D(   71) --> V(   13) amplitude = -0.0707
    X: D(   71) --> V(   17) amplitude =  0.1138
    X: D(   71) --> V(   28) amplitude = -0.0899

 Excited state   6: excitation energy (eV) =        3.5591
 Total energy for state   6:                 -1028.77836830 au
    Multiplicity: Triplet
    Trans. Mom.:  0.0000 X   0.0000 Y   0.0000 Z
    Strength   :     0.0000000000
    X: D(   69) --> V(    1) amplitude =  0.0883
    X: D(   69) --> V(   28) amplitude =  0.0870
    X: D(   70) --> V(    1) amplitude =  0.1691
    X: D(   70) --> V(    2) amplitude =  0.2621
    X: D(   70) --> V(    4) amplitude =  0.0986
    X: D(   70) --> V(   11) amplitude = -0.0788
    X: D(   72) --> V(    1) amplitude =  0.1440
    X: D(   72) --> V(    7) amplitude =  0.1151
    X: D(   73) --> V(    1) amplitude =  0.4197
    X: D(   73) --> V(    2) amplitude =  0.2005
    X: D(   73) --> V(    4) amplitude = -0.0765
    X: D(   73) --> V(   11) amplitude = -0.1250
    X: D(   73) --> V(   13) amplitude =  0.0785
    X: D(   74) --> V(    2) amplitude =  0.7445

 Excited state   7: excitation energy (eV) =        3.6425
 Total energy for state   7:                 -1028.77530396 au
    Multiplicity: Triplet
    Trans. Mom.:  0.0000 X   0.0000 Y   0.0000 Z
    Strength   :     0.0000000000
    X: D(   68) --> V(    1) amplitude = -0.0834
    X: D(   69) --> V(    1) amplitude =  0.2433
    X: D(   70) --> V(    1) amplitude =  0.7079
    X: D(   70) --> V(    4) amplitude =  0.1845
    X: D(   72) --> V(    1) amplitude = -0.1650
    X: D(   72) --> V(    2) amplitude =  0.0828
    X: D(   72) --> V(    4) amplitude = -0.1076
    X: D(   72) --> V(    7) amplitude =  0.1704
    X: D(   73) --> V(    1) amplitude = -0.2517
    X: D(   73) --> V(    2) amplitude =  0.1469
    X: D(   73) --> V(    4) amplitude = -0.3415
    X: D(   73) --> V(    7) amplitude =  0.1071
    X: D(   74) --> V(    2) amplitude = -0.1815
    X: D(   74) --> V(   11) amplitude = -0.1839
    X: D(   74) --> V(   13) amplitude =  0.0710

 Excited state   8: excitation energy (eV) =        3.6699
 Total energy for state   8:                 -1028.77429654 au
    Multiplicity: Singlet
    Trans. Mom.: -0.0085 X  -0.1659 Y   0.3103 Z
    Strength   :     0.0111384337
    X: D(   70) --> V(    1) amplitude = -0.1252
    X: D(   72) --> V(    1) amplitude = -0.2105
    X: D(   73) --> V(    1) amplitude =  0.9443
    X: D(   74) --> V(    1) amplitude = -0.1106
    X: D(   74) --> V(    2) amplitude = -0.0931

 Excited state   9: excitation energy (eV) =        3.8364
 Total energy for state   9:                 -1028.76817741 au
    Multiplicity: Singlet
    Trans. Mom.: -0.0026 X   0.0031 Y  -0.0126 Z
    Strength   :     0.0000164850
    X: D(   71) --> V(    1) amplitude =  0.9196
    X: D(   71) --> V(    2) amplitude =  0.2387
    X: D(   71) --> V(    4) amplitude = -0.1631
    X: D(   71) --> V(   11) amplitude =  0.2043
    X: D(   71) --> V(   17) amplitude =  0.0895

 Excited state  10: excitation energy (eV) =        3.8706
 Total energy for state  10:                 -1028.76691948 au
    Multiplicity: Singlet
    Trans. Mom.: -0.0078 X  -0.0933 Y   0.3877 Z
    Strength   :     0.0150829214
    X: D(   72) --> V(    1) amplitude =  0.9474
    X: D(   72) --> V(    2) amplitude =  0.0827
    X: D(   73) --> V(    1) amplitude =  0.2091
    X: D(   73) --> V(    2) amplitude = -0.1011
    X: D(   74) --> V(    2) amplitude = -0.0812
    X: D(   74) --> V(    4) amplitude = -0.0769

 Excited state  11: excitation energy (eV) =        4.0853
 Total energy for state  11:                 -1028.75902972 au
    Multiplicity: Triplet
    Trans. Mom.:  0.0000 X   0.0000 Y   0.0000 Z
    Strength   :     0.0000000000
    X: D(   66) --> V(    2) amplitude = -0.0723
    X: D(   68) --> V(    1) amplitude = -0.2543
    X: D(   69) --> V(    1) amplitude = -0.2155
    X: D(   69) --> V(    2) amplitude =  0.1098
    X: D(   69) --> V(    4) amplitude = -0.1273
    X: D(   70) --> V(    1) amplitude =  0.3114
    X: D(   70) --> V(    2) amplitude = -0.2121
    X: D(   70) --> V(    4) amplitude = -0.1243
    X: D(   70) --> V(    7) amplitude =  0.1024
    X: D(   70) --> V(   11) amplitude =  0.0778
    X: D(   72) --> V(    2) amplitude =  0.1887
    X: D(   72) --> V(    4) amplitude =  0.2106
    X: D(   72) --> V(    7) amplitude =  0.1327
    X: D(   73) --> V(    1) amplitude = -0.0935
    X: D(   73) --> V(    2) amplitude =  0.3381
    X: D(   73) --> V(    4) amplitude =  0.4639
    X: D(   73) --> V(    7) amplitude = -0.2682
    X: D(   73) --> V(   11) amplitude =  0.0814
    X: D(   74) --> V(    2) amplitude =  0.0769
    X: D(   74) --> V(    4) amplitude =  0.2465
    X: D(   74) --> V(    7) amplitude =  0.1111
    X: D(   74) --> V(   11) amplitude =  0.1814

 Excited state  12: excitation energy (eV) =        4.4507
 Total energy for state  12:                 -1028.74560343 au
    Multiplicity: Singlet
    Trans. Mom.:  0.0075 X   0.3668 Y  -0.1738 Z
    Strength   :     0.0179724878
    X: D(   70) --> V(    1) amplitude =  0.4050
    X: D(   70) --> V(    4) amplitude =  0.0832
    X: D(   73) --> V(    1) amplitude =  0.1675
    X: D(   73) --> V(    2) amplitude =  0.1977
    X: D(   73) --> V(   11) amplitude = -0.0886
    X: D(   74) --> V(    2) amplitude =  0.8379
    X: D(   74) --> V(    4) amplitude =  0.1434

 Excited state  13: excitation energy (eV) =        4.6088
 Total energy for state  13:                 -1028.73979255 au
    Multiplicity: Singlet
    Trans. Mom.: -0.0240 X  -0.8392 Y   0.7979 Z
    Strength   :     0.1514583817
    X: D(   69) --> V(    1) amplitude =  0.1005
    X: D(   70) --> V(    1) amplitude =  0.7320
    X: D(   70) --> V(    2) amplitude = -0.1347
    X: D(   72) --> V(    1) amplitude = -0.0811
    X: D(   72) --> V(    2) amplitude =  0.1440
    X: D(   72) --> V(    7) amplitude = -0.0734
    X: D(   73) --> V(    2) amplitude =  0.3057
    X: D(   73) --> V(    4) amplitude =  0.0887
    X: D(   74) --> V(    2) amplitude = -0.4785
    X: D(   74) --> V(    4) amplitude =  0.1445
    X: D(   74) --> V(    7) amplitude = -0.1270
    X: D(   74) --> V(   11) amplitude = -0.0782

 Excited state  14: excitation energy (eV) =        4.9503
 Total energy for state  14:                 -1028.72724219 au
    Multiplicity: Singlet
    Trans. Mom.:  0.0068 X   0.3187 Y   0.0251 Z
    Strength   :     0.0123988038
    X: D(   69) --> V(    1) amplitude =  0.0878
    X: D(   70) --> V(    1) amplitude =  0.1952
    X: D(   70) --> V(    2) amplitude =  0.0710
    X: D(   70) --> V(    7) amplitude =  0.1244
    X: D(   72) --> V(    1) amplitude = -0.1396
    X: D(   72) --> V(   11) amplitude =  0.1031
    X: D(   73) --> V(    2) amplitude = -0.2264
    X: D(   73) --> V(    7) amplitude =  0.1842
    X: D(   74) --> V(    2) amplitude =  0.0888
    X: D(   74) --> V(    4) amplitude = -0.6983
    X: D(   74) --> V(    7) amplitude = -0.5377
    X: D(   74) --> V(    8) amplitude = -0.0742

 ---------------------------------------------------

                    Orbital Energies (a.u.)
 --------------------------------------------------------------

 Alpha MOs
 -- Occupied --
-19.2957 -19.2480 -19.2475 -19.2454 -19.2291 -19.1586 -10.3689 -10.3465
-10.3418 -10.3411 -10.3388 -10.3159 -10.3062 -10.2881 -10.2795 -10.2688
-10.2603 -10.2598 -10.2558 -10.2551 -10.2386  -1.2235  -1.1640  -1.1632
 -1.1585  -1.1412  -1.0773  -0.9721  -0.9460  -0.9186  -0.8824  -0.8448
 -0.8318  -0.8171  -0.7648  -0.7621  -0.7195  -0.7055  -0.6949  -0.6709
 -0.6473  -0.6331  -0.6239  -0.6100  -0.5868  -0.5736  -0.5713  -0.5601
 -0.5495  -0.5343  -0.5192  -0.5162  -0.5162  -0.5019  -0.4993  -0.4949
 -0.4939  -0.4823  -0.4816  -0.4727  -0.4557  -0.4464  -0.4366  -0.4313
 -0.4305  -0.4211  -0.4204  -0.3941  -0.3631  -0.3225  -0.3143  -0.3059
 -0.2886  -0.2402

                    Cartesian Multipole Moments
                  LMN = < X^L Y^M Z^N >

 Total job time:  3926.99s(wall), 53643.43s(cpu)
        *  Thank you very much for using Q-Chem.  Have a nice day.  *
