 Q-Chem 6.2, Q-Chem, Inc., Pleasanton, CA (2024)
 Q-Chem 6.2.0 for Intel X86 EM64T Linux

User input:
--------------------------------------------------------------
$comment
TDDFT calculation of cyanidin Q4 structure
nprocs=16
mem=64gb
$end

$molecule
0 1
C    0.2154618   -1.8271670   -3.7491663
C    0.1231405   -0.5851358   -4.4870701
C    0.0232826    0.6191165   -3.8630089
C    0.0021829    0.7020576   -2.4304630
C    0.0953330   -0.5305344   -1.7164589
C    0.1957254   -1.7508122   -2.3212546
C   -0.1049545    1.8697679   -1.7115062
C   -0.1135165    1.8656261   -0.3105714
C   -0.0054080    0.6651104    0.3694285
O    0.0927642   -0.4769570   -0.3565341
C    0.0030422    0.4247406    1.8037977
C   -0.2585385   -0.8738554    2.2825460
C   -0.2397029   -1.1434182    3.6347736
C    0.0486237   -0.1241985    4.5543994
C    0.3152577    1.1565551    4.0920198
C    0.2892758    1.4360293    2.7352838
O    0.3130293   -2.9353065   -4.3620384
H    0.1383899   -0.6351007   -5.5696527
O   -0.0621541    1.8072368   -4.5247569
H    0.2679759   -2.6553609   -1.7328737
H   -0.1936183    2.8198468   -2.2240748
O   -0.2511932    3.0305917    0.3907054
H   -0.4884658   -1.6784733    1.5976714
O   -0.4950027   -2.3811222    4.1692043
O    0.0704714   -0.3741857    5.8947840
H    0.5462247    1.9341320    4.8085075
H    0.5127454    2.4363044    2.4049034
H   -0.0322793    1.6518934   -5.4800029
H   -0.3367776    3.7713422   -0.2263064
H   -0.1411976   -1.3071886    6.0516947
H   -0.6741774   -3.0205541    3.4653698
$end

$rem
BASIS  =  def2-ma-TZVP
MEM_STATIC  =  2000
MEM_TOTAL  =  64000
METHOD  =  CAM-B3LYP
SOLVENT_METHOD = pcm
SYMMETRY_IGNORE  =  1
CIS_N_ROOTS = 7
CIS_SINGLETS = true
CIS_TRIPLETS = true
CISTR_PRINT = true
RPA = true
PRINT_ORBITALS = true
SCF_PRINT = 1
SCF_FINAL_PRINT = 2
PRINT_GENERAL_BASIS = true
CISTR_PRINT = true
PRINT_RADII_GYRE = true
MULTIPOLE_ORDER = 5
CIS_AMPL_PRINT = 5
CIS_AMPL_ANAL = true
STATE_ANALYSIS = true
$end

$pcm
Theory   CPCM
Method   SWIG
Solver   Inversion
Radii    Bondi
$end

$solvent
Dielectric         78.39
OpticalDielectric  1.777849
$end

--------------------------------------------------------------

             Standard Nuclear Orientation (Angstroms)
    I     Atom           X                Y                Z
 ----------------------------------------------------------------
    1      C       0.2154618000    -1.8271670000    -3.7491663000
    2      C       0.1231405000    -0.5851358000    -4.4870701000
    3      C       0.0232826000     0.6191165000    -3.8630089000
    4      C       0.0021829000     0.7020576000    -2.4304630000
    5      C       0.0953330000    -0.5305344000    -1.7164589000
    6      C       0.1957254000    -1.7508122000    -2.3212546000
    7      C      -0.1049545000     1.8697679000    -1.7115062000
    8      C      -0.1135165000     1.8656261000    -0.3105714000
    9      C      -0.0054080000     0.6651104000     0.3694285000
   10      O       0.0927642000    -0.4769570000    -0.3565341000
   11      C       0.0030422000     0.4247406000     1.8037977000
   12      C      -0.2585385000    -0.8738554000     2.2825460000
   13      C      -0.2397029000    -1.1434182000     3.6347736000
   14      C       0.0486237000    -0.1241985000     4.5543994000
   15      C       0.3152577000     1.1565551000     4.0920198000
   16      C       0.2892758000     1.4360293000     2.7352838000
   17      O       0.3130293000    -2.9353065000    -4.3620384000
   18      H       0.1383899000    -0.6351007000    -5.5696527000
   19      O      -0.0621541000     1.8072368000    -4.5247569000
   20      H       0.2679759000    -2.6553609000    -1.7328737000
   21      H      -0.1936183000     2.8198468000    -2.2240748000
   22      O      -0.2511932000     3.0305917000     0.3907054000
   23      H      -0.4884658000    -1.6784733000     1.5976714000
   24      O      -0.4950027000    -2.3811222000     4.1692043000
   25      O       0.0704714000    -0.3741857000     5.8947840000
   26      H       0.5462247000     1.9341320000     4.8085075000
   27      H       0.5127454000     2.4363044000     2.4049034000
   28      H      -0.0322793000     1.6518934000    -5.4800029000
   29      H      -0.3367776000     3.7713422000    -0.2263064000
   30      H      -0.1411976000    -1.3071886000     6.0516947000
   31      H      -0.6741774000    -3.0205541000     3.4653698000
 ----------------------------------------------------------------

   16   -1028.9125230618      5.99e-09  Convergence criterion met
 Total energy = -1028.91252306

             TDDFT Excitation Energies
 ---------------------------------------------------

 Excited state   1: excitation energy (eV) =        1.2933
 Total energy for state   1:                 -1028.86499501 au
    Multiplicity: Triplet
    Trans. Mom.:  0.0000 X   0.0000 Y   0.0000 Z
    Strength   :     0.0000000000
    X: D(   68) --> V(    1) amplitude =  0.0843
    X: D(   69) --> V(    1) amplitude = -0.1156
    X: D(   70) --> V(    2) amplitude =  0.0819
    X: D(   72) --> V(    1) amplitude =  0.0800
    X: D(   73) --> V(    1) amplitude =  0.1248
    X: D(   73) --> V(    2) amplitude = -0.1020
    X: D(   74) --> V(    1) amplitude =  0.9956
    Y: D(   74) --> V(    1) amplitude =  0.2675

 Excited state   2: excitation energy (eV) =        2.5926
 Total energy for state   2:                 -1028.81724542 au
    Multiplicity: Singlet
    Trans. Mom.: -0.0634 X   0.5786 Y   3.0461 Z
    Strength   :     0.6108798316
    X: D(   72) --> V(    1) amplitude = -0.1171
    X: D(   73) --> V(    1) amplitude =  0.1471
    X: D(   74) --> V(    1) amplitude =  0.9746

 Excited state   3: excitation energy (eV) =        2.7510
 Total energy for state   3:                 -1028.81142690 au
    Multiplicity: Triplet
    Trans. Mom.:  0.0000 X   0.0000 Y   0.0000 Z
    Strength   :     0.0000000000
    X: D(   68) --> V(    1) amplitude = -0.0956
    X: D(   69) --> V(    1) amplitude =  0.0741
    X: D(   70) --> V(    3) amplitude =  0.0778
    X: D(   70) --> V(    4) amplitude =  0.1182
    X: D(   70) --> V(    7) amplitude =  0.0740
    X: D(   72) --> V(    1) amplitude = -0.4167
    X: D(   72) --> V(    2) amplitude =  0.1070
    X: D(   72) --> V(    7) amplitude = -0.1487
    X: D(   73) --> V(    1) amplitude =  0.6931
    X: D(   73) --> V(    7) amplitude = -0.1240
    X: D(   73) --> V(   11) amplitude = -0.0931
    X: D(   74) --> V(    2) amplitude = -0.4686
    Y: D(   74) --> V(    2) amplitude = -0.0889

 Excited state   4: excitation energy (eV) =        2.9394
 Total energy for state   4:                 -1028.80450382 au
    Multiplicity: Triplet
    Trans. Mom.:  0.0000 X   0.0000 Y   0.0000 Z
    Strength   :     0.0000000000
    X: D(   66) --> V(    1) amplitude = -0.0813
    X: D(   68) --> V(    1) amplitude =  0.0838
    X: D(   69) --> V(    1) amplitude =  0.1526
    X: D(   70) --> V(    1) amplitude = -0.3805
    X: D(   70) --> V(    7) amplitude = -0.0731
    X: D(   72) --> V(    1) amplitude =  0.7195
    Y: D(   72) --> V(    1) amplitude =  0.0761
    X: D(   72) --> V(    4) amplitude =  0.1012
    X: D(   72) --> V(    7) amplitude =  0.1881
    X: D(   72) --> V(   11) amplitude = -0.0897
    X: D(   73) --> V(    1) amplitude =  0.1670
    X: D(   73) --> V(    2) amplitude =  0.1191
    X: D(   73) --> V(    7) amplitude = -0.1767
    X: D(   74) --> V(    2) amplitude = -0.3302
    X: D(   74) --> V(    7) amplitude =  0.1010

 Excited state   5: excitation energy (eV) =        3.5103
 Total energy for state   5:                 -1028.78352169 au
    Multiplicity: Triplet
    Trans. Mom.:  0.0000 X   0.0000 Y   0.0000 Z
    Strength   :     0.0000000000
    X: D(   66) --> V(    1) amplitude = -0.0940
    X: D(   69) --> V(    1) amplitude = -0.2817
    X: D(   69) --> V(   28) amplitude = -0.0769
    X: D(   70) --> V(    1) amplitude =  0.2614
    X: D(   72) --> V(    1) amplitude =  0.2103
    X: D(   72) --> V(    2) amplitude =  0.0891
    X: D(   72) --> V(    7) amplitude = -0.0896
    X: D(   73) --> V(    1) amplitude =  0.4731
    X: D(   73) --> V(    2) amplitude =  0.3962
    X: D(   74) --> V(    1) amplitude = -0.0888
    X: D(   74) --> V(    2) amplitude =  0.4496
    X: D(   74) --> V(    3) amplitude =  0.1155
    X: D(   74) --> V(    4) amplitude =  0.1474
    X: D(   74) --> V(    7) amplitude =  0.2283
    X: D(   74) --> V(   11) amplitude =  0.1911
    X: D(   74) --> V(   13) amplitude =  0.0827
    X: D(   74) --> V(   17) amplitude = -0.0774

 Excited state   6: excitation energy (eV) =        3.6618
 Total energy for state   6:                 -1028.77795345 au
    Multiplicity: Singlet
    Trans. Mom.:  0.0149 X  -0.2367 Y  -1.5077 Z
    Strength   :     0.2089863214
    X: D(   69) --> V(    1) amplitude =  0.1346
    X: D(   72) --> V(    1) amplitude = -0.5673
    X: D(   72) --> V(    2) amplitude =  0.1195
    X: D(   73) --> V(    1) amplitude =  0.7645
    X: D(   74) --> V(    1) amplitude = -0.1755
    X: D(   74) --> V(    2) amplitude = -0.1278

 Excited state   7: excitation energy (eV) =        3.7307
 Total energy for state   7:                 -1028.77542109 au
    Multiplicity: Triplet
    Trans. Mom.:  0.0000 X   0.0000 Y   0.0000 Z
    Strength   :     0.0000000000
    X: D(   69) --> V(    1) amplitude = -0.0840
    X: D(   70) --> V(    1) amplitude = -0.0762
    X: D(   70) --> V(    2) amplitude = -0.1751
    X: D(   70) --> V(    3) amplitude =  0.0767
    X: D(   70) --> V(    4) amplitude =  0.1196
    X: D(   71) --> V(    1) amplitude =  0.8321
    X: D(   71) --> V(    2) amplitude = -0.3011
    X: D(   71) --> V(   10) amplitude =  0.0724
    X: D(   71) --> V(   11) amplitude = -0.2206
    X: D(   71) --> V(   28) amplitude =  0.1106
    X: D(   72) --> V(    1) amplitude = -0.1022
    X: D(   72) --> V(    4) amplitude =  0.0749
    X: D(   73) --> V(    1) amplitude = -0.0711
    X: D(   73) --> V(    4) amplitude =  0.0988
    X: D(   74) --> V(    7) amplitude =  0.0850

 Excited state   8: excitation energy (eV) =        3.7366
 Total energy for state   8:                 -1028.77520392 au
    Multiplicity: Triplet
    Trans. Mom.:  0.0000 X   0.0000 Y   0.0000 Z
    Strength   :     0.0000000000
    X: D(   66) --> V(    1) amplitude =  0.0772
    X: D(   69) --> V(    1) amplitude =  0.2242
    X: D(   70) --> V(    1) amplitude =  0.4749
    X: D(   70) --> V(    2) amplitude =  0.2758
    X: D(   70) --> V(    3) amplitude = -0.1926
    X: D(   70) --> V(    4) amplitude = -0.2879
    X: D(   70) --> V(   11) amplitude = -0.0899
    X: D(   71) --> V(    1) amplitude =  0.2739
    X: D(   71) --> V(    2) amplitude = -0.1830
    X: D(   71) --> V(   11) amplitude = -0.0822
    X: D(   72) --> V(    1) amplitude =  0.2237
    X: D(   72) --> V(    2) amplitude =  0.1184
    X: D(   72) --> V(    3) amplitude = -0.1203
    X: D(   72) --> V(    4) amplitude = -0.1757
    X: D(   73) --> V(    1) amplitude =  0.1824
    X: D(   73) --> V(    2) amplitude = -0.1434
    X: D(   73) --> V(    3) amplitude = -0.1665
    X: D(   73) --> V(    4) amplitude = -0.2360
    X: D(   74) --> V(    2) amplitude = -0.1332
    X: D(   74) --> V(    7) amplitude = -0.2189
    X: D(   74) --> V(   11) amplitude = -0.1334

 Excited state   9: excitation energy (eV) =        3.9046
 Total energy for state   9:                 -1028.76903301 au
    Multiplicity: Triplet
    Trans. Mom.:  0.0000 X   0.0000 Y   0.0000 Z
    Strength   :     0.0000000000
    X: D(   68) --> V(    1) amplitude =  0.1637
    X: D(   69) --> V(    1) amplitude =  0.4625
    X: D(   69) --> V(    2) amplitude = -0.1586
    X: D(   70) --> V(    1) amplitude = -0.4723
    X: D(   70) --> V(    3) amplitude = -0.0795
    X: D(   70) --> V(    4) amplitude = -0.1132
    X: D(   72) --> V(    1) amplitude = -0.1521
    X: D(   72) --> V(    7) amplitude =  0.1056
    X: D(   73) --> V(    1) amplitude =  0.2730
    X: D(   73) --> V(    2) amplitude = -0.1807
    X: D(   73) --> V(    3) amplitude = -0.0721
    X: D(   73) --> V(    4) amplitude = -0.0958
    X: D(   73) --> V(    7) amplitude =  0.1150
    X: D(   73) --> V(   11) amplitude =  0.1035
    X: D(   74) --> V(    2) amplitude =  0.4759
    X: D(   74) --> V(    3) amplitude =  0.0826
    X: D(   74) --> V(    4) amplitude =  0.1024

 Excited state  10: excitation energy (eV) =        4.0095
 Total energy for state  10:                 -1028.76517706 au
    Multiplicity: Singlet
    Trans. Mom.: -0.0093 X   0.0262 Y   0.0069 Z
    Strength   :     0.0000804254
    X: D(   70) --> V(    1) amplitude =  0.1273
    X: D(   71) --> V(    1) amplitude =  0.9039
    X: D(   71) --> V(    2) amplitude = -0.3073
    X: D(   71) --> V(   11) amplitude = -0.1976
    X: D(   71) --> V(   28) amplitude =  0.0925

 Excited state  11: excitation energy (eV) =        4.1463
 Total energy for state  11:                 -1028.76014840 au
    Multiplicity: Singlet
    Trans. Mom.: -0.0944 X   0.3595 Y  -0.4195 Z
    Strength   :     0.0319170499
    X: D(   70) --> V(    1) amplitude =  0.1254
    X: D(   70) --> V(    2) amplitude =  0.1075
    X: D(   70) --> V(    7) amplitude = -0.0866
    X: D(   72) --> V(    1) amplitude =  0.7291
    X: D(   73) --> V(    1) amplitude =  0.5623
    X: D(   73) --> V(    2) amplitude =  0.1966
    X: D(   73) --> V(    4) amplitude = -0.0764
    X: D(   74) --> V(    2) amplitude =  0.1240
    X: D(   74) --> V(    3) amplitude =  0.1057
    X: D(   74) --> V(    4) amplitude =  0.1496

 Excited state  12: excitation energy (eV) =        4.4330
 Total energy for state  12:                 -1028.74961348 au
    Multiplicity: Singlet
    Trans. Mom.: -0.0324 X  -0.3938 Y   0.5287 Z
    Strength   :     0.0473181038
    X: D(   69) --> V(    1) amplitude = -0.0955
    X: D(   70) --> V(    1) amplitude =  0.8469
    X: D(   70) --> V(    2) amplitude =  0.1269
    X: D(   71) --> V(    1) amplitude = -0.1127
    X: D(   72) --> V(    2) amplitude =  0.1289
    X: D(   73) --> V(    1) amplitude = -0.1269
    X: D(   73) --> V(    3) amplitude = -0.0960
    X: D(   73) --> V(    4) amplitude = -0.1330
    X: D(   74) --> V(    2) amplitude = -0.3328
    X: D(   74) --> V(    4) amplitude =  0.0800
    X: D(   74) --> V(    7) amplitude = -0.1808

 Excited state  13: excitation energy (eV) =        4.7787
 Total energy for state  13:                 -1028.73690884 au
    Multiplicity: Singlet
    Trans. Mom.:  0.1844 X  -1.8052 Y   0.0406 Z
    Strength   :     0.3857072299
    X: D(   69) --> V(    1) amplitude =  0.1127
    X: D(   70) --> V(    1) amplitude =  0.2986
    X: D(   72) --> V(    1) amplitude = -0.2507
    X: D(   72) --> V(    7) amplitude =  0.1003
    X: D(   73) --> V(    7) amplitude =  0.0777
    X: D(   73) --> V(   11) amplitude =  0.0728
    X: D(   74) --> V(    2) amplitude =  0.8197
    X: D(   74) --> V(    3) amplitude =  0.1478
    X: D(   74) --> V(    4) amplitude =  0.2086
    X: D(   74) --> V(    7) amplitude =  0.1686

 Excited state  14: excitation energy (eV) =        5.1101
 Total energy for state  14:                 -1028.72472895 au
    Multiplicity: Singlet
    Trans. Mom.:  0.0619 X   0.8286 Y  -0.1959 Z
    Strength   :     0.0912391026
    X: D(   69) --> V(    1) amplitude =  0.1581
    X: D(   70) --> V(    1) amplitude = -0.2351
    X: D(   70) --> V(    2) amplitude =  0.0799
    X: D(   70) --> V(    4) amplitude =  0.0918
    X: D(   70) --> V(    7) amplitude = -0.0962
    X: D(   72) --> V(    1) amplitude = -0.1156
    X: D(   72) --> V(   11) amplitude = -0.0774
    X: D(   73) --> V(    1) amplitude = -0.1465
    X: D(   73) --> V(    2) amplitude =  0.1785
    X: D(   73) --> V(    3) amplitude = -0.1343
    X: D(   73) --> V(    4) amplitude = -0.1807
    X: D(   73) --> V(    7) amplitude =  0.0945
    X: D(   73) --> V(   11) amplitude = -0.0751
    X: D(   74) --> V(    2) amplitude = -0.2900
    X: D(   74) --> V(    3) amplitude =  0.5743
    X: D(   74) --> V(    4) amplitude =  0.5070
    X: D(   74) --> V(    7) amplitude =  0.1751
    X: D(   74) --> V(    8) amplitude =  0.0892

 ---------------------------------------------------

                    Orbital Energies (a.u.)
 --------------------------------------------------------------

 Alpha MOs
 -- Occupied --
-19.2947 -19.2454 -19.2454 -19.2437 -19.2424 -19.1543 -10.3571 -10.3454
-10.3365 -10.3363 -10.3255 -10.3229 -10.3208 -10.2997 -10.2855 -10.2791
-10.2647 -10.2609 -10.2565 -10.2457 -10.2369  -1.2205  -1.1685  -1.1606
 -1.1596  -1.1408  -1.0775  -0.9668  -0.9538  -0.9208  -0.8771  -0.8425
 -0.8395  -0.8202  -0.7664  -0.7533  -0.7236  -0.7130  -0.7021  -0.6505
 -0.6444  -0.6375  -0.6230  -0.6106  -0.5945  -0.5815  -0.5726  -0.5637
 -0.5547  -0.5321  -0.5220  -0.5191  -0.5104  -0.5052  -0.5000  -0.4897
 -0.4876  -0.4796  -0.4722  -0.4670  -0.4563  -0.4526  -0.4508  -0.4408
 -0.4297  -0.4274  -0.4192  -0.3972  -0.3563  -0.3159  -0.3144  -0.3050
 -0.2923  -0.2493

                    Cartesian Multipole Moments
                  LMN = < X^L Y^M Z^N >

 Total job time:  3904.13s(wall), 53914.16s(cpu)
        *  Thank you very much for using Q-Chem.  Have a nice day.  *
