 Q-Chem 6.2, Q-Chem, Inc., Pleasanton, CA (2024)
 Q-Chem 6.2.0 for Intel X86 EM64T Linux

User input:
--------------------------------------------------------------
$comment
TDDFT calculation of cyanidin Q2 structure
nprocs=16
mem=64gb
$end

$molecule
0 1
C    0.1864490   -1.7498820   -3.7263091
C    0.0965186   -0.5972829   -4.4940844
C   -0.0059291    0.6820626   -3.9023145
C   -0.0065190    0.7051977   -2.4316836
C    0.0925822   -0.5169225   -1.7133766
C    0.1881072   -1.7426116   -2.3209234
C   -0.1089899    1.8693523   -1.7040569
C   -0.1080618    1.8693725   -0.3062262
C    0.0021944    0.6648166    0.3732638
O    0.0988612   -0.4708986   -0.3544121
C    0.0100430    0.4228780    1.8066732
C   -0.2554843   -0.8760875    2.2828994
C   -0.2405278   -1.1468551    3.6344772
C    0.0487793   -0.1284868    4.5555976
C    0.3201009    1.1521982    4.0952855
C    0.2970010    1.4330913    2.7390377
O    0.2799372   -2.9788115   -4.3075054
H    0.1018670   -0.6740710   -5.5750053
O   -0.0975419    1.7604259   -4.5677473
H    0.2640450   -2.6583692   -1.7535730
H   -0.2028149    2.8161055   -2.2241082
O   -0.2410419    3.0309095    0.3990351
H   -0.4866818   -1.6789580    1.5963708
O   -0.5009074   -2.3833841    4.1680933
O    0.0662141   -0.3794571    5.8947297
H    0.5514581    1.9282681    4.8132134
H    0.5231883    2.4330658    2.4097180
H    0.2654009   -2.8913893   -5.2720005
H   -0.3287281    3.7737642   -0.2154219
H   -0.1487273   -1.3119387    6.0508784
H   -0.6814922   -3.0223023    3.4641054
$end

$rem
BASIS  =  def2-ma-TZVP
MEM_STATIC  =  2000
MEM_TOTAL  =  64000
METHOD  =  CAM-B3LYP
SOLVENT_METHOD = pcm
SYMMETRY_IGNORE  =  1
CIS_N_ROOTS = 7
CIS_SINGLETS = true
CIS_TRIPLETS = true
CISTR_PRINT = true
RPA = true
PRINT_ORBITALS = true
SCF_PRINT = 1
SCF_FINAL_PRINT = 2
PRINT_GENERAL_BASIS = true
CISTR_PRINT = true
PRINT_RADII_GYRE = true
MULTIPOLE_ORDER = 5
CIS_AMPL_PRINT = 5
CIS_AMPL_ANAL = true
STATE_ANALYSIS = true
$end

$pcm
Theory   CPCM
Method   SWIG
Solver   Inversion
Radii    Bondi
$end

$solvent
Dielectric         78.39
OpticalDielectric  1.777849
$end

--------------------------------------------------------------

             Standard Nuclear Orientation (Angstroms)
    I     Atom           X                Y                Z
 ----------------------------------------------------------------
    1      C       0.1864490000    -1.7498820000    -3.7263091000
    2      C       0.0965186000    -0.5972829000    -4.4940844000
    3      C      -0.0059291000     0.6820626000    -3.9023145000
    4      C      -0.0065190000     0.7051977000    -2.4316836000
    5      C       0.0925822000    -0.5169225000    -1.7133766000
    6      C       0.1881072000    -1.7426116000    -2.3209234000
    7      C      -0.1089899000     1.8693523000    -1.7040569000
    8      C      -0.1080618000     1.8693725000    -0.3062262000
    9      C       0.0021944000     0.6648166000     0.3732638000
   10      O       0.0988612000    -0.4708986000    -0.3544121000
   11      C       0.0100430000     0.4228780000     1.8066732000
   12      C      -0.2554843000    -0.8760875000     2.2828994000
   13      C      -0.2405278000    -1.1468551000     3.6344772000
   14      C       0.0487793000    -0.1284868000     4.5555976000
   15      C       0.3201009000     1.1521982000     4.0952855000
   16      C       0.2970010000     1.4330913000     2.7390377000
   17      O       0.2799372000    -2.9788115000    -4.3075054000
   18      H       0.1018670000    -0.6740710000    -5.5750053000
   19      O      -0.0975419000     1.7604259000    -4.5677473000
   20      H       0.2640450000    -2.6583692000    -1.7535730000
   21      H      -0.2028149000     2.8161055000    -2.2241082000
   22      O      -0.2410419000     3.0309095000     0.3990351000
   23      H      -0.4866818000    -1.6789580000     1.5963708000
   24      O      -0.5009074000    -2.3833841000     4.1680933000
   25      O       0.0662141000    -0.3794571000     5.8947297000
   26      H       0.5514581000     1.9282681000     4.8132134000
   27      H       0.5231883000     2.4330658000     2.4097180000
   28      H       0.2654009000    -2.8913893000    -5.2720005000
   29      H      -0.3287281000     3.7737642000    -0.2154219000
   30      H      -0.1487273000    -1.3119387000     6.0508784000
   31      H      -0.6814922000    -3.0223023000     3.4641054000
 ----------------------------------------------------------------

   16   -1028.9126706324      5.77e-09  Convergence criterion met
 Total energy = -1028.91267063

             TDDFT Excitation Energies
 ---------------------------------------------------

 Excited state   1: excitation energy (eV) =        1.3639
 Total energy for state   1:                 -1028.86254690 au
    Multiplicity: Triplet
    Trans. Mom.:  0.0000 X   0.0000 Y   0.0000 Z
    Strength   :     0.0000000000
    X: D(   68) --> V(    1) amplitude = -0.0773
    X: D(   69) --> V(    1) amplitude =  0.0724
    X: D(   70) --> V(    1) amplitude =  0.1070
    X: D(   72) --> V(    1) amplitude = -0.1558
    X: D(   73) --> V(    1) amplitude = -0.0933
    X: D(   73) --> V(    2) amplitude = -0.0998
    X: D(   74) --> V(    1) amplitude =  0.9779
    Y: D(   74) --> V(    1) amplitude =  0.2101

 Excited state   2: excitation energy (eV) =        2.3963
 Total energy for state   2:                 -1028.82460670 au
    Multiplicity: Singlet
    Trans. Mom.: -0.0040 X   0.0770 Y  -2.4738 Z
    Strength   :     0.3596194778
    X: D(   73) --> V(    1) amplitude =  0.1228
    X: D(   74) --> V(    1) amplitude =  0.9823
    X: D(   74) --> V(    2) amplitude = -0.0893

 Excited state   3: excitation energy (eV) =        2.4879
 Total energy for state   3:                 -1028.82124041 au
    Multiplicity: Triplet
    Trans. Mom.:  0.0000 X   0.0000 Y   0.0000 Z
    Strength   :     0.0000000000
    X: D(   68) --> V(    1) amplitude =  0.0896
    X: D(   69) --> V(    1) amplitude = -0.1120
    X: D(   70) --> V(    2) amplitude =  0.0870
    X: D(   72) --> V(    1) amplitude =  0.1523
    X: D(   73) --> V(    1) amplitude =  0.8433
    Y: D(   73) --> V(    1) amplitude =  0.0866
    X: D(   73) --> V(    7) amplitude = -0.0840
    X: D(   73) --> V(   11) amplitude = -0.0816
    X: D(   74) --> V(    1) amplitude =  0.1243
    X: D(   74) --> V(    2) amplitude = -0.4027
    Y: D(   74) --> V(    2) amplitude = -0.0716

 Excited state   4: excitation energy (eV) =        3.2723
 Total energy for state   4:                 -1028.79241619 au
    Multiplicity: Triplet
    Trans. Mom.:  0.0000 X   0.0000 Y   0.0000 Z
    Strength   :     0.0000000000
    X: D(   66) --> V(    1) amplitude = -0.1066
    X: D(   69) --> V(    1) amplitude = -0.0863
    X: D(   70) --> V(    1) amplitude = -0.4224
    X: D(   70) --> V(    3) amplitude =  0.0929
    X: D(   70) --> V(    4) amplitude =  0.0799
    X: D(   72) --> V(    1) amplitude =  0.6308
    X: D(   72) --> V(    3) amplitude =  0.0865
    X: D(   72) --> V(    4) amplitude =  0.0784
    X: D(   72) --> V(    7) amplitude = -0.0934
    X: D(   73) --> V(    2) amplitude = -0.4473
    X: D(   73) --> V(    7) amplitude =  0.1649
    X: D(   73) --> V(    9) amplitude =  0.0799
    X: D(   74) --> V(    1) amplitude =  0.1008
    X: D(   74) --> V(    2) amplitude =  0.1405
    X: D(   74) --> V(    7) amplitude = -0.0987
    X: D(   74) --> V(   10) amplitude = -0.0819
    X: D(   74) --> V(   11) amplitude = -0.1534

 Excited state   5: excitation energy (eV) =        3.4050
 Total energy for state   5:                 -1028.78754091 au
    Multiplicity: Singlet
    Trans. Mom.: -0.0197 X   0.2847 Y   2.2148 Z
    Strength   :     0.4159874481
    X: D(   68) --> V(    1) amplitude =  0.0866
    X: D(   69) --> V(    1) amplitude = -0.0882
    X: D(   72) --> V(    1) amplitude =  0.1724
    X: D(   73) --> V(    1) amplitude =  0.9474
    X: D(   74) --> V(    1) amplitude = -0.1237
    X: D(   74) --> V(    2) amplitude = -0.1454

 Excited state   6: excitation energy (eV) =        3.4531
 Total energy for state   6:                 -1028.78577070 au
    Multiplicity: Triplet
    Trans. Mom.:  0.0000 X   0.0000 Y   0.0000 Z
    Strength   :     0.0000000000
    X: D(   68) --> V(    1) amplitude = -0.1720
    X: D(   70) --> V(    1) amplitude = -0.1154
    X: D(   70) --> V(    2) amplitude =  0.0843
    X: D(   72) --> V(    1) amplitude = -0.1169
    X: D(   72) --> V(    2) amplitude = -0.1757
    X: D(   73) --> V(    1) amplitude =  0.3629
    X: D(   73) --> V(    2) amplitude =  0.1019
    X: D(   73) --> V(    7) amplitude =  0.1426
    X: D(   73) --> V(    9) amplitude =  0.0739
    X: D(   74) --> V(    2) amplitude =  0.7068
    X: D(   74) --> V(    3) amplitude =  0.1376
    X: D(   74) --> V(    4) amplitude =  0.1153
    X: D(   74) --> V(    7) amplitude =  0.3274
    X: D(   74) --> V(    8) amplitude =  0.1201
    X: D(   74) --> V(    9) amplitude =  0.1633
    X: D(   74) --> V(   11) amplitude = -0.0751

 Excited state   7: excitation energy (eV) =        3.5131
 Total energy for state   7:                 -1028.78356748 au
    Multiplicity: Triplet
    Trans. Mom.:  0.0000 X   0.0000 Y   0.0000 Z
    Strength   :     0.0000000000
    X: D(   71) --> V(    1) amplitude =  0.9337
    X: D(   71) --> V(    2) amplitude = -0.1500
    X: D(   71) --> V(    7) amplitude =  0.1901
    X: D(   71) --> V(    8) amplitude =  0.0753
    X: D(   71) --> V(    9) amplitude =  0.1014
    X: D(   71) --> V(   11) amplitude = -0.1289
    X: D(   71) --> V(   28) amplitude = -0.0864

 Excited state   8: excitation energy (eV) =        3.6663
 Total energy for state   8:                 -1028.77793796 au
    Multiplicity: Triplet
    Trans. Mom.:  0.0000 X   0.0000 Y   0.0000 Z
    Strength   :     0.0000000000
    X: D(   68) --> V(    1) amplitude = -0.0879
    X: D(   70) --> V(    1) amplitude =  0.4002
    X: D(   70) --> V(    2) amplitude =  0.1836
    X: D(   70) --> V(    3) amplitude = -0.1459
    X: D(   70) --> V(    4) amplitude = -0.1323
    X: D(   70) --> V(    7) amplitude = -0.0872
    X: D(   70) --> V(   11) amplitude = -0.0749
    X: D(   72) --> V(    1) amplitude =  0.5443
    X: D(   72) --> V(    2) amplitude =  0.2730
    X: D(   72) --> V(    3) amplitude = -0.2907
    X: D(   72) --> V(    4) amplitude = -0.2660
    X: D(   73) --> V(    1) amplitude = -0.1346
    X: D(   73) --> V(    2) amplitude =  0.1978
    X: D(   73) --> V(    3) amplitude =  0.1411
    X: D(   73) --> V(    4) amplitude =  0.1254
    X: D(   74) --> V(    2) amplitude =  0.1101
    X: D(   74) --> V(    7) amplitude =  0.2184
    X: D(   74) --> V(    8) amplitude =  0.0803
    X: D(   74) --> V(    9) amplitude =  0.1079

 Excited state   9: excitation energy (eV) =        3.7145
 Total energy for state   9:                 -1028.77616437 au
    Multiplicity: Singlet
    Trans. Mom.: -0.0156 X  -0.0178 Y  -0.0657 Z
    Strength   :     0.0004444837
    X: D(   71) --> V(    1) amplitude =  0.9524
    X: D(   71) --> V(    2) amplitude = -0.1533
    X: D(   71) --> V(    7) amplitude =  0.1624
    X: D(   71) --> V(    9) amplitude =  0.0857
    X: D(   71) --> V(   11) amplitude = -0.0938
    X: D(   71) --> V(   28) amplitude = -0.0728

 Excited state  10: excitation energy (eV) =        3.9655
 Total energy for state  10:                 -1028.76694035 au
    Multiplicity: Triplet
    Trans. Mom.:  0.0000 X   0.0000 Y   0.0000 Z
    Strength   :     0.0000000000
    X: D(   57) --> V(    1) amplitude = -0.1003
    X: D(   68) --> V(    1) amplitude = -0.4071
    X: D(   68) --> V(    2) amplitude =  0.0980
    X: D(   69) --> V(    1) amplitude = -0.6380
    X: D(   70) --> V(    1) amplitude = -0.0883
    X: D(   70) --> V(    2) amplitude = -0.2025
    X: D(   72) --> V(    1) amplitude = -0.0810
    X: D(   72) --> V(    2) amplitude =  0.1313
    X: D(   72) --> V(    3) amplitude =  0.0922
    X: D(   72) --> V(    4) amplitude =  0.0780
    X: D(   73) --> V(    1) amplitude = -0.1245
    X: D(   73) --> V(    2) amplitude =  0.1669
    X: D(   73) --> V(    7) amplitude =  0.1672
    X: D(   73) --> V(    9) amplitude =  0.0834
    X: D(   74) --> V(    2) amplitude = -0.2640
    X: D(   74) --> V(    7) amplitude =  0.1411
    X: D(   74) --> V(    9) amplitude =  0.0852
    X: D(   74) --> V(   10) amplitude = -0.0936
    X: D(   74) --> V(   11) amplitude = -0.2232
    X: D(   74) --> V(   13) amplitude =  0.1080
    X: D(   74) --> V(   28) amplitude = -0.1120

 Excited state  11: excitation energy (eV) =        4.1804
 Total energy for state  11:                 -1028.75904436 au
    Multiplicity: Singlet
    Trans. Mom.: -0.0736 X  -0.0595 Y  -0.3601 Z
    Strength   :     0.0142003316
    X: D(   70) --> V(    1) amplitude =  0.0710
    X: D(   70) --> V(    2) amplitude =  0.0735
    X: D(   72) --> V(    1) amplitude =  0.8890
    X: D(   72) --> V(    2) amplitude =  0.1413
    X: D(   73) --> V(    1) amplitude = -0.1819
    X: D(   73) --> V(    2) amplitude = -0.1604
    X: D(   73) --> V(    3) amplitude =  0.1107
    X: D(   73) --> V(    4) amplitude =  0.1057
    X: D(   74) --> V(    2) amplitude = -0.2015
    X: D(   74) --> V(    3) amplitude = -0.1275
    X: D(   74) --> V(    4) amplitude = -0.1099

 Excited state  12: excitation energy (eV) =        4.4084
 Total energy for state  12:                 -1028.75066575 au
    Multiplicity: Singlet
    Trans. Mom.: -0.0901 X   0.4549 Y   0.9693 Z
    Strength   :     0.1247026543
    X: D(   69) --> V(    1) amplitude = -0.0725
    X: D(   70) --> V(    1) amplitude =  0.3939
    X: D(   70) --> V(    2) amplitude =  0.0979
    X: D(   72) --> V(    1) amplitude =  0.1919
    X: D(   73) --> V(    1) amplitude =  0.1245
    X: D(   73) --> V(    2) amplitude =  0.1465
    X: D(   73) --> V(    3) amplitude =  0.0736
    X: D(   73) --> V(   11) amplitude =  0.1089
    X: D(   74) --> V(    2) amplitude =  0.8063
    X: D(   74) --> V(    7) amplitude =  0.1891
    X: D(   74) --> V(    9) amplitude =  0.0886

 Excited state  13: excitation energy (eV) =        4.7575
 Total energy for state  13:                 -1028.73783443 au
    Multiplicity: Singlet
    Trans. Mom.:  0.0916 X  -1.1978 Y   0.1940 Z
    Strength   :     0.1726006884
    X: D(   69) --> V(    1) amplitude =  0.0838
    X: D(   70) --> V(    1) amplitude =  0.8208
    X: D(   72) --> V(    1) amplitude = -0.2055
    X: D(   72) --> V(    2) amplitude =  0.1234
    X: D(   72) --> V(    3) amplitude = -0.0796
    X: D(   72) --> V(    4) amplitude = -0.0713
    X: D(   73) --> V(    2) amplitude =  0.1320
    X: D(   73) --> V(    3) amplitude =  0.1154
    X: D(   73) --> V(    4) amplitude =  0.0941
    X: D(   74) --> V(    2) amplitude = -0.3742
    X: D(   74) --> V(    3) amplitude = -0.1292
    X: D(   74) --> V(    4) amplitude = -0.1036

 Excited state  14: excitation energy (eV) =        5.1524
 Total energy for state  14:                 -1028.72332504 au
    Multiplicity: Singlet
    Trans. Mom.: -0.0385 X  -0.4235 Y   0.2978 Z
    Strength   :     0.0340269231
    X: D(   70) --> V(    1) amplitude =  0.1195
    X: D(   72) --> V(    1) amplitude =  0.1645
    X: D(   73) --> V(    2) amplitude =  0.2091
    X: D(   73) --> V(    3) amplitude = -0.1951
    X: D(   73) --> V(    4) amplitude = -0.1627
    X: D(   73) --> V(    5) amplitude = -0.1023
    X: D(   73) --> V(    6) amplitude = -0.1075
    X: D(   74) --> V(    2) amplitude = -0.1264
    X: D(   74) --> V(    3) amplitude =  0.6845
    X: D(   74) --> V(    5) amplitude = -0.4402
    X: D(   74) --> V(    6) amplitude = -0.1224
    X: D(   74) --> V(    8) amplitude =  0.1372
    X: D(   74) --> V(   10) amplitude =  0.1657
    X: D(   74) --> V(   11) amplitude = -0.0824
    X: D(   74) --> V(   12) amplitude =  0.1059

 ---------------------------------------------------

                    Orbital Energies (a.u.)
 --------------------------------------------------------------

 Alpha MOs
 -- Occupied --
-19.2996 -19.2463 -19.2443 -19.2439 -19.2434 -19.1514 -10.3616 -10.3464
-10.3379 -10.3355 -10.3270 -10.3238 -10.3208 -10.2982 -10.2802 -10.2754
-10.2660 -10.2624 -10.2573 -10.2434 -10.2326  -1.2255  -1.1695  -1.1618
 -1.1567  -1.1418  -1.0770  -0.9667  -0.9482  -0.9232  -0.8824  -0.8437
 -0.8331  -0.8181  -0.7666  -0.7619  -0.7267  -0.7054  -0.6880  -0.6712
 -0.6435  -0.6334  -0.6227  -0.6198  -0.5861  -0.5784  -0.5724  -0.5657
 -0.5492  -0.5303  -0.5228  -0.5186  -0.5078  -0.5035  -0.4996  -0.4926
 -0.4883  -0.4801  -0.4761  -0.4627  -0.4582  -0.4568  -0.4527  -0.4413
 -0.4287  -0.4269  -0.4197  -0.3827  -0.3647  -0.3242  -0.3151  -0.3072
 -0.2798  -0.2490

                    Cartesian Multipole Moments
                  LMN = < X^L Y^M Z^N >

 Total job time:  3992.72s(wall), 53889.03s(cpu)
        *  Thank you very much for using Q-Chem.  Have a nice day.  *
