 Q-Chem 6.2, Q-Chem, Inc., Pleasanton, CA (2024)
 Q-Chem 6.2.0 for Intel X86 EM64T Linux

User input:
--------------------------------------------------------------
$comment
TDDFT calculation of cyanidin H structure
nprocs=16
mem=64gb
$end

$molecule
1 1
C    0.1577253   -1.7789824   -3.7020022
C    0.1027768   -0.6017663   -4.4719825
C    0.0283904    0.6225105   -3.8525307
C    0.0068878    0.7047067   -2.4309281
C    0.0700199   -0.5076839   -1.7131730
C    0.1436650   -1.7489540   -2.3137410
C   -0.0803226    1.8920997   -1.7039273
C   -0.0902566    1.8891447   -0.3211511
C   -0.0068894    0.6656710    0.3677662
O    0.0648180   -0.4585011   -0.3607564
C   -0.0045396    0.4264099    1.7924149
C   -0.2230143   -0.8867019    2.2637911
C   -0.2077510   -1.1594366    3.6117240
C    0.0378849   -0.1294371    4.5381003
C    0.2626072    1.1637603    4.0837083
C    0.2360180    1.4474566    2.7309111
O    0.2279734   -2.9937809   -4.2945135
H    0.1202074   -0.6653325   -5.5535839
O   -0.0279903    1.7935894   -4.5276368
H    0.1909816   -2.6553609   -1.7281458
H   -0.1530353    2.8405408   -2.2216128
O   -0.2045002    3.0357764    0.3953128
H   -0.4186698   -1.6955459    1.5737568
O   -0.4241231   -2.4007454    4.1461540
O    0.0562372   -0.3817457    5.8694470
H    0.4581509    1.9450627    4.8061649
H    0.4238894    2.4560668    2.4064578
H    0.2243148   -2.9050628   -5.2593000
H   -0.0042077    1.6333277   -5.4827239
H   -0.2597369    3.7956246   -0.2030517
H   -0.1225891   -1.3223712    6.0265654
H   -0.5849425   -3.0485789    3.4452562
$end

$rem
BASIS  =  def2-ma-TZVP
MEM_STATIC  =  2000
MEM_TOTAL  =  64000
METHOD  =  CAM-B3LYP
SOLVENT_METHOD = pcm
SYMMETRY_IGNORE  =  1
CIS_N_ROOTS = 7
CIS_SINGLETS = true
CIS_TRIPLETS = true
CISTR_PRINT = true
RPA = true
PRINT_ORBITALS = true
SCF_PRINT = 1
SCF_FINAL_PRINT = 2
PRINT_GENERAL_BASIS = true
CISTR_PRINT = true
PRINT_RADII_GYRE = true
MULTIPOLE_ORDER = 5
CIS_AMPL_PRINT = 5
CIS_AMPL_ANAL = true
STATE_ANALYSIS = true
$end

$pcm
Theory   CPCM
Method   SWIG
Solver   Inversion
Radii    Bondi
$end

$solvent
Dielectric         78.39
OpticalDielectric  1.777849
$end

--------------------------------------------------------------

             Standard Nuclear Orientation (Angstroms)
    I     Atom           X                Y                Z
 ----------------------------------------------------------------
    1      C       0.1577253000    -1.7789824000    -3.7020022000
    2      C       0.1027768000    -0.6017663000    -4.4719825000
    3      C       0.0283904000     0.6225105000    -3.8525307000
    4      C       0.0068878000     0.7047067000    -2.4309281000
    5      C       0.0700199000    -0.5076839000    -1.7131730000
    6      C       0.1436650000    -1.7489540000    -2.3137410000
    7      C      -0.0803226000     1.8920997000    -1.7039273000
    8      C      -0.0902566000     1.8891447000    -0.3211511000
    9      C      -0.0068894000     0.6656710000     0.3677662000
   10      O       0.0648180000    -0.4585011000    -0.3607564000
   11      C      -0.0045396000     0.4264099000     1.7924149000
   12      C      -0.2230143000    -0.8867019000     2.2637911000
   13      C      -0.2077510000    -1.1594366000     3.6117240000
   14      C       0.0378849000    -0.1294371000     4.5381003000
   15      C       0.2626072000     1.1637603000     4.0837083000
   16      C       0.2360180000     1.4474566000     2.7309111000
   17      O       0.2279734000    -2.9937809000    -4.2945135000
   18      H       0.1202074000    -0.6653325000    -5.5535839000
   19      O      -0.0279903000     1.7935894000    -4.5276368000
   20      H       0.1909816000    -2.6553609000    -1.7281458000
   21      H      -0.1530353000     2.8405408000    -2.2216128000
   22      O      -0.2045002000     3.0357764000     0.3953128000
   23      H      -0.4186698000    -1.6955459000     1.5737568000
   24      O      -0.4241231000    -2.4007454000     4.1461540000
   25      O       0.0562372000    -0.3817457000     5.8694470000
   26      H       0.4581509000     1.9450627000     4.8061649000
   27      H       0.4238894000     2.4560668000     2.4064578000
   28      H       0.2243148000    -2.9050628000    -5.2593000000
   29      H      -0.0042077000     1.6333277000    -5.4827239000
   30      H      -0.2597369000     3.7956246000    -0.2030517000
   31      H      -0.1225891000    -1.3223712000     6.0265654000
   32      H      -0.5849425000    -3.0485789000     3.4452562000
 ----------------------------------------------------------------

   15   -1029.3664316457      7.87e-09  Convergence criterion met
 Total energy = -1029.36643165

             TDDFT Excitation Energies
 ---------------------------------------------------

 Excited state   1: excitation energy (eV) =        1.6010
 Total energy for state   1:                 -1029.30759774 au
    Multiplicity: Triplet
    Trans. Mom.:  0.0000 X   0.0000 Y   0.0000 Z
    Strength   :     0.0000000000
    X: D(   70) --> V(    1) amplitude = -0.1814
    X: D(   70) --> V(    9) amplitude =  0.0814
    X: D(   71) --> V(    1) amplitude = -0.0868
    X: D(   71) --> V(    2) amplitude =  0.0791
    X: D(   72) --> V(    1) amplitude = -0.0708
    X: D(   73) --> V(    1) amplitude =  0.2019
    X: D(   73) --> V(    2) amplitude = -0.0808
    X: D(   73) --> V(    5) amplitude = -0.0731
    X: D(   74) --> V(    1) amplitude =  0.9559
    Y: D(   74) --> V(    1) amplitude =  0.1937

 Excited state   2: excitation energy (eV) =        2.5858
 Total energy for state   2:                 -1029.27140517 au
    Multiplicity: Triplet
    Trans. Mom.:  0.0000 X   0.0000 Y   0.0000 Z
    Strength   :     0.0000000000
    X: D(   69) --> V(    1) amplitude = -0.1053
    X: D(   71) --> V(    3) amplitude = -0.1218
    X: D(   72) --> V(    1) amplitude =  0.1819
    X: D(   72) --> V(    5) amplitude = -0.1038
    X: D(   73) --> V(    1) amplitude =  0.8488
    Y: D(   73) --> V(    1) amplitude =  0.0846
    X: D(   73) --> V(    9) amplitude =  0.1096
    X: D(   74) --> V(    1) amplitude = -0.1687
    X: D(   74) --> V(    2) amplitude = -0.3468
    Y: D(   74) --> V(    2) amplitude = -0.0746
    X: D(   74) --> V(    3) amplitude = -0.1111
    X: D(   74) --> V(    5) amplitude = -0.0960
    X: D(   74) --> V(    9) amplitude = -0.0895

 Excited state   3: excitation energy (eV) =        2.7501
 Total energy for state   3:                 -1029.26536739 au
    Multiplicity: Singlet
    Trans. Mom.:  0.0189 X  -0.0950 Y  -3.3324 Z
    Strength   :     0.7488226962
    X: D(   73) --> V(    1) amplitude =  0.2276
    X: D(   74) --> V(    1) amplitude =  0.9636

 Excited state   4: excitation energy (eV) =        3.1246
 Total energy for state   4:                 -1029.25160339 au
    Multiplicity: Triplet
    Trans. Mom.:  0.0000 X   0.0000 Y   0.0000 Z
    Strength   :     0.0000000000
    X: D(   67) --> V(    1) amplitude =  0.0808
    X: D(   71) --> V(    1) amplitude =  0.2082
    X: D(   71) --> V(    3) amplitude = -0.0810
    X: D(   71) --> V(    5) amplitude = -0.0777
    X: D(   72) --> V(    1) amplitude =  0.8536
    X: D(   72) --> V(    2) amplitude =  0.1347
    X: D(   72) --> V(    3) amplitude =  0.0972
    X: D(   72) --> V(    9) amplitude =  0.0888
    X: D(   73) --> V(    1) amplitude = -0.1817
    X: D(   73) --> V(    2) amplitude = -0.2125
    X: D(   73) --> V(    3) amplitude = -0.1862
    X: D(   74) --> V(    1) amplitude =  0.1115
    X: D(   74) --> V(    9) amplitude =  0.0867

 Excited state   5: excitation energy (eV) =        3.4602
 Total energy for state   5:                 -1029.23927276 au
    Multiplicity: Triplet
    Trans. Mom.:  0.0000 X   0.0000 Y   0.0000 Z
    Strength   :     0.0000000000
    X: D(   67) --> V(    1) amplitude =  0.1313
    X: D(   70) --> V(    1) amplitude =  0.0998
    X: D(   71) --> V(    1) amplitude =  0.7599
    X: D(   71) --> V(    9) amplitude =  0.1000
    X: D(   72) --> V(    1) amplitude = -0.1077
    X: D(   72) --> V(    2) amplitude = -0.2087
    X: D(   72) --> V(    3) amplitude = -0.2992
    X: D(   73) --> V(    1) amplitude =  0.2251
    X: D(   73) --> V(    5) amplitude = -0.1946
    X: D(   74) --> V(    2) amplitude =  0.2861
    X: D(   74) --> V(    9) amplitude =  0.1631

 Excited state   6: excitation energy (eV) =        3.4690
 Total energy for state   6:                 -1029.23894744 au
    Multiplicity: Singlet
    Trans. Mom.:  0.0118 X   0.1701 Y   1.2746 Z
    Strength   :     0.1405355685
    X: D(   71) --> V(    1) amplitude =  0.1470
    X: D(   72) --> V(    1) amplitude =  0.2345
    X: D(   73) --> V(    1) amplitude =  0.9153
    X: D(   74) --> V(    1) amplitude = -0.2134
    X: D(   74) --> V(    2) amplitude = -0.1196

 Excited state   7: excitation energy (eV) =        3.7149
 Total energy for state   7:                 -1029.22991063 au
    Multiplicity: Triplet
    Trans. Mom.:  0.0000 X   0.0000 Y   0.0000 Z
    Strength   :     0.0000000000
    X: D(   67) --> V(    1) amplitude = -0.0810
    X: D(   70) --> V(    2) amplitude = -0.1097
    X: D(   70) --> V(    9) amplitude = -0.0777
    X: D(   70) --> V(   26) amplitude = -0.0979
    X: D(   71) --> V(    1) amplitude = -0.2630
    X: D(   71) --> V(    2) amplitude = -0.2407
    X: D(   72) --> V(    1) amplitude =  0.2732
    X: D(   72) --> V(    5) amplitude =  0.0978
    X: D(   73) --> V(    1) amplitude =  0.2457
    X: D(   73) --> V(    2) amplitude =  0.2262
    X: D(   73) --> V(    9) amplitude = -0.1368
    X: D(   74) --> V(    2) amplitude =  0.7481
    Y: D(   74) --> V(    2) amplitude =  0.0785
    X: D(   74) --> V(    3) amplitude = -0.0821
    X: D(   74) --> V(    9) amplitude = -0.0828

 Excited state   8: excitation energy (eV) =        3.8110
 Total energy for state   8:                 -1029.22637977 au
    Multiplicity: Singlet
    Trans. Mom.: -0.0797 X  -0.1005 Y   0.3639 Z
    Strength   :     0.0138995645
    X: D(   72) --> V(    1) amplitude =  0.9388
    X: D(   72) --> V(    2) amplitude =  0.0744
    X: D(   73) --> V(    1) amplitude = -0.2332
    X: D(   73) --> V(    2) amplitude = -0.1202
    X: D(   74) --> V(    3) amplitude =  0.1164

 Excited state   9: excitation energy (eV) =        3.9215
 Total energy for state   9:                 -1029.22231952 au
    Multiplicity: Triplet
    Trans. Mom.:  0.0000 X   0.0000 Y   0.0000 Z
    Strength   :     0.0000000000
    X: D(   58) --> V(    1) amplitude =  0.1123
    X: D(   67) --> V(    1) amplitude = -0.0708
    X: D(   69) --> V(    1) amplitude =  0.2939
    X: D(   69) --> V(    9) amplitude = -0.0757
    X: D(   70) --> V(    1) amplitude =  0.7408
    X: D(   70) --> V(    2) amplitude = -0.1458
    X: D(   71) --> V(    1) amplitude = -0.2513
    X: D(   71) --> V(    2) amplitude =  0.1616
    X: D(   72) --> V(    3) amplitude = -0.1471
    X: D(   73) --> V(    2) amplitude = -0.0717
    X: D(   73) --> V(    3) amplitude = -0.1015
    X: D(   73) --> V(    5) amplitude = -0.2245
    X: D(   73) --> V(    9) amplitude =  0.0725
    X: D(   74) --> V(    3) amplitude = -0.1129
    X: D(   74) --> V(    5) amplitude = -0.0919
    X: D(   74) --> V(    9) amplitude =  0.2552

 Excited state  10: excitation energy (eV) =        4.0789
 Total energy for state  10:                 -1029.21653429 au
    Multiplicity: Triplet
    Trans. Mom.:  0.0000 X   0.0000 Y   0.0000 Z
    Strength   :     0.0000000000
    X: D(   67) --> V(    1) amplitude = -0.0917
    X: D(   69) --> V(    1) amplitude =  0.0849
    X: D(   69) --> V(    2) amplitude = -0.0736
    X: D(   71) --> V(    1) amplitude =  0.1723
    X: D(   71) --> V(    3) amplitude = -0.1754
    X: D(   72) --> V(    1) amplitude = -0.1280
    X: D(   72) --> V(    2) amplitude =  0.1486
    X: D(   72) --> V(    3) amplitude =  0.1398
    X: D(   72) --> V(    5) amplitude = -0.4353
    X: D(   73) --> V(    2) amplitude =  0.4308
    X: D(   73) --> V(    3) amplitude = -0.4820
    X: D(   73) --> V(    9) amplitude =  0.1026
    X: D(   74) --> V(    2) amplitude =  0.1381
    X: D(   74) --> V(    5) amplitude = -0.3598
    X: D(   74) --> V(    9) amplitude = -0.1239

 Excited state  11: excitation energy (eV) =        4.4953
 Total energy for state  11:                 -1029.20123300 au
    Multiplicity: Singlet
    Trans. Mom.:  0.0007 X   0.5053 Y  -0.5965 Z
    Strength   :     0.0672968162
    X: D(   67) --> V(    1) amplitude =  0.0910
    X: D(   71) --> V(    1) amplitude =  0.8628
    X: D(   72) --> V(    2) amplitude = -0.1746
    X: D(   73) --> V(    1) amplitude = -0.1738
    X: D(   73) --> V(    2) amplitude = -0.2773
    X: D(   73) --> V(    3) amplitude =  0.0846
    X: D(   74) --> V(    2) amplitude = -0.2263
    X: D(   74) --> V(    5) amplitude =  0.1318

 Excited state  12: excitation energy (eV) =        4.9541
 Total energy for state  12:                 -1029.18437221 au
    Multiplicity: Singlet
    Trans. Mom.: -0.1108 X   1.2121 Y   0.1785 Z
    Strength   :     0.1836631639
    X: D(   70) --> V(    1) amplitude =  0.3113
    X: D(   71) --> V(    1) amplitude =  0.2902
    X: D(   71) --> V(    3) amplitude =  0.0885
    X: D(   71) --> V(    5) amplitude =  0.0723
    X: D(   72) --> V(    1) amplitude =  0.0812
    X: D(   72) --> V(    5) amplitude =  0.0824
    X: D(   73) --> V(    2) amplitude =  0.1856
    X: D(   73) --> V(    5) amplitude = -0.0774
    X: D(   73) --> V(    9) amplitude = -0.1189
    X: D(   74) --> V(    2) amplitude =  0.8222
    X: D(   74) --> V(    3) amplitude = -0.1790

 Excited state  13: excitation energy (eV) =        5.2634
 Total energy for state  13:                 -1029.17300388 au
    Multiplicity: Singlet
    Trans. Mom.: -0.0064 X   0.7130 Y  -0.4310 Z
    Strength   :     0.0895145292
    X: D(   70) --> V(    1) amplitude = -0.4841
    X: D(   71) --> V(    2) amplitude = -0.1194
    X: D(   71) --> V(    5) amplitude = -0.1163
    X: D(   72) --> V(    1) amplitude = -0.0922
    X: D(   72) --> V(    5) amplitude =  0.0795
    X: D(   72) --> V(    9) amplitude =  0.1479
    X: D(   73) --> V(    1) amplitude =  0.0915
    X: D(   73) --> V(    2) amplitude = -0.3824
    X: D(   73) --> V(    5) amplitude =  0.1702
    X: D(   74) --> V(    2) amplitude =  0.4061
    X: D(   74) --> V(    3) amplitude =  0.5579

 Excited state  14: excitation energy (eV) =        5.3328
 Total energy for state  14:                 -1029.17045636 au
    Multiplicity: Singlet
    Trans. Mom.:  0.1342 X  -0.7339 Y  -0.6807 Z
    Strength   :     0.1332540817
    X: D(   69) --> V(    1) amplitude =  0.1666
    X: D(   70) --> V(    1) amplitude =  0.7621
    X: D(   71) --> V(    1) amplitude = -0.1528
    X: D(   71) --> V(    5) amplitude = -0.0920
    X: D(   72) --> V(    1) amplitude = -0.1559
    X: D(   72) --> V(    9) amplitude =  0.1179
    X: D(   73) --> V(    2) amplitude = -0.2787
    X: D(   73) --> V(    3) amplitude = -0.1339
    X: D(   73) --> V(    5) amplitude =  0.0737
    X: D(   74) --> V(    2) amplitude = -0.0816
    X: D(   74) --> V(    3) amplitude =  0.4005
    X: D(   74) --> V(    5) amplitude = -0.1719

 ---------------------------------------------------

                    Orbital Energies (a.u.)
 --------------------------------------------------------------

 Alpha MOs
 -- Occupied --
-19.3238 -19.2584 -19.2574 -19.2568 -19.2514 -19.2488 -10.3890 -10.3661
-10.3573 -10.3566 -10.3555 -10.3384 -10.3309 -10.3156 -10.3006 -10.2898
-10.2749 -10.2728 -10.2723 -10.2669 -10.2635  -1.2516  -1.1775  -1.1762
 -1.1757  -1.1720  -1.1489  -0.9893  -0.9694  -0.9406  -0.9045  -0.8612
 -0.8529  -0.8432  -0.7888  -0.7840  -0.7355  -0.7339  -0.7196  -0.7013
 -0.6630  -0.6499  -0.6448  -0.6357  -0.6271  -0.6018  -0.5958  -0.5884
 -0.5768  -0.5669  -0.5473  -0.5331  -0.5317  -0.5263  -0.5207  -0.5124
 -0.5066  -0.5054  -0.4939  -0.4894  -0.4850  -0.4718  -0.4648  -0.4636
 -0.4494  -0.4426  -0.4416  -0.4292  -0.4146  -0.3777  -0.3405  -0.3195
 -0.3053  -0.2767

                    Cartesian Multipole Moments
                  LMN = < X^L Y^M Z^N >

 Total job time:  3907.38s(wall), 54935.78s(cpu)
        *  Thank you very much for using Q-Chem.  Have a nice day.  *
