 Q-Chem 6.2, Q-Chem, Inc., Pleasanton, CA (2024)
 Q-Chem 6.2.0 for Intel X86 EM64T Linux

User input:
--------------------------------------------------------------
$comment
TDDFT calculation of delphinidin Q3 structure
nprocs=16
mem=64gb
$end

$molecule
0 1
C   -4.7467443    0.9289039    1.7607128
C   -4.7493008   -0.2883806    1.0944345
C   -3.6562980   -0.6999227    0.2991456
C   -2.5303942    0.2454314    0.2266239
C   -2.6020168    1.4755997    0.9355793
C   -3.6780458    1.8404047    1.7025486
C   -1.3912736   -0.0079295   -0.5016336
C   -0.3331958    0.9053054   -0.5609633
C   -0.4333357    2.1060286    0.1252352
O   -1.5557832    2.3386632    0.8426159
C    0.5291777    3.1946960    0.2067591
C    1.5595139    3.3389128   -0.7372670
C    2.4331467    4.4078882   -0.6470956
C    2.3122333    5.3451361    0.3794988
C    1.2931118    5.1967364    1.3230102
C    0.4061310    4.1403088    1.2381949
O   -5.8063103    1.3158469    2.5247407
H   -5.6078208   -0.9436308    1.1830345
O   -3.6140548   -1.8055874   -0.3239953
H   -3.7124571    2.7812512    2.2312759
H   -1.3022612   -0.9441475   -1.0413271
O    0.8004161    0.6213655   -1.2666175
H    1.6731311    2.6435267   -1.5530670
O    3.4557865    4.6275386   -1.5348092
O    3.1525096    6.4109498    0.5082469
O    1.1583119    6.0984906    2.3473056
H   -0.3707466    4.0551599    1.9830468
H   -6.4961262    0.6359609    2.5055161
H    0.7277559   -0.2624607   -1.6551053
H    3.8072115    6.4040514   -0.2064202
H    3.4622225    3.9382564   -2.2139790
H    1.8525657    6.7709260    2.2828547
$end

$rem
BASIS  =  def2-ma-TZVP
MEM_STATIC  =  2000
MEM_TOTAL  =  64000
METHOD  =  CAM-B3LYP
SOLVENT_METHOD = pcm
SYMMETRY_IGNORE  =  1
CIS_N_ROOTS = 7
CIS_SINGLETS = true
CIS_TRIPLETS = true
CISTR_PRINT = true
RPA = true
PRINT_ORBITALS = true
SCF_PRINT = 1
SCF_FINAL_PRINT = 2
PRINT_GENERAL_BASIS = true
CISTR_PRINT = true
PRINT_RADII_GYRE = true
MULTIPOLE_ORDER = 5
CIS_AMPL_PRINT = 5
CIS_AMPL_ANAL = true
STATE_ANALYSIS = true
$end

$pcm
Theory   CPCM
Method   SWIG
Solver   Inversion
Radii    Bondi
$end

$solvent
Dielectric         78.39
OpticalDielectric  1.777849
$end

--------------------------------------------------------------

             Standard Nuclear Orientation (Angstroms)
    I     Atom           X                Y                Z
 ----------------------------------------------------------------
    1      C      -4.7467443000     0.9289039000     1.7607128000
    2      C      -4.7493008000    -0.2883806000     1.0944345000
    3      C      -3.6562980000    -0.6999227000     0.2991456000
    4      C      -2.5303942000     0.2454314000     0.2266239000
    5      C      -2.6020168000     1.4755997000     0.9355793000
    6      C      -3.6780458000     1.8404047000     1.7025486000
    7      C      -1.3912736000    -0.0079295000    -0.5016336000
    8      C      -0.3331958000     0.9053054000    -0.5609633000
    9      C      -0.4333357000     2.1060286000     0.1252352000
   10      O      -1.5557832000     2.3386632000     0.8426159000
   11      C       0.5291777000     3.1946960000     0.2067591000
   12      C       1.5595139000     3.3389128000    -0.7372670000
   13      C       2.4331467000     4.4078882000    -0.6470956000
   14      C       2.3122333000     5.3451361000     0.3794988000
   15      C       1.2931118000     5.1967364000     1.3230102000
   16      C       0.4061310000     4.1403088000     1.2381949000
   17      O      -5.8063103000     1.3158469000     2.5247407000
   18      H      -5.6078208000    -0.9436308000     1.1830345000
   19      O      -3.6140548000    -1.8055874000    -0.3239953000
   20      H      -3.7124571000     2.7812512000     2.2312759000
   21      H      -1.3022612000    -0.9441475000    -1.0413271000
   22      O       0.8004161000     0.6213655000    -1.2666175000
   23      H       1.6731311000     2.6435267000    -1.5530670000
   24      O       3.4557865000     4.6275386000    -1.5348092000
   25      O       3.1525096000     6.4109498000     0.5082469000
   26      O       1.1583119000     6.0984906000     2.3473056000
   27      H      -0.3707466000     4.0551599000     1.9830468000
   28      H      -6.4961262000     0.6359609000     2.5055161000
   29      H       0.7277559000    -0.2624607000    -1.6551053000
   30      H       3.8072115000     6.4040514000    -0.2064202000
   31      H       3.4622225000     3.9382564000    -2.2139790000
   32      H       1.8525657000     6.7709260000     2.2828547000
 ----------------------------------------------------------------

   16   -1104.1521959946      5.39e-09  Convergence criterion met
 Total energy = -1104.15219599

             TDDFT Excitation Energies
 ---------------------------------------------------

 Excited state   1: excitation energy (eV) =        1.3535
 Total energy for state   1:                 -1104.10245437 au
    Multiplicity: Triplet
    Trans. Mom.:  0.0000 X   0.0000 Y   0.0000 Z
    Strength   :     0.0000000000
    X: D(   73) --> V(    1) amplitude =  0.0719
    X: D(   75) --> V(    1) amplitude =  0.1928
    X: D(   77) --> V(    1) amplitude = -0.0838
    X: D(   77) --> V(    2) amplitude =  0.1037
    X: D(   78) --> V(    1) amplitude =  0.9780
    Y: D(   78) --> V(    1) amplitude =  0.2129

 Excited state   2: excitation energy (eV) =        2.3939
 Total energy for state   2:                 -1104.06422317 au
    Multiplicity: Singlet
    Trans. Mom.:  1.8035 X   1.6394 Y  -0.0705 Z
    Strength   :     0.3486921144
    X: D(   77) --> V(    1) amplitude =  0.1328
    X: D(   78) --> V(    1) amplitude =  0.9814
    X: D(   78) --> V(    2) amplitude =  0.0859

 Excited state   3: excitation energy (eV) =        2.4708
 Total energy for state   3:                 -1104.06139441 au
    Multiplicity: Triplet
    Trans. Mom.:  0.0000 X   0.0000 Y   0.0000 Z
    Strength   :     0.0000000000
    X: D(   72) --> V(    1) amplitude =  0.0857
    X: D(   73) --> V(    1) amplitude = -0.1331
    X: D(   75) --> V(    1) amplitude = -0.1203
    X: D(   75) --> V(    2) amplitude = -0.0958
    X: D(   75) --> V(    8) amplitude =  0.0976
    X: D(   76) --> V(    5) amplitude = -0.1258
    X: D(   77) --> V(    1) amplitude =  0.8415
    Y: D(   77) --> V(    1) amplitude =  0.0884
    X: D(   77) --> V(    8) amplitude =  0.0910
    X: D(   77) --> V(   11) amplitude = -0.0964
    X: D(   78) --> V(    1) amplitude =  0.1213
    X: D(   78) --> V(    2) amplitude =  0.4041
    Y: D(   78) --> V(    2) amplitude =  0.0739

 Excited state   4: excitation energy (eV) =        3.2541
 Total energy for state   4:                 -1104.03260860 au
    Multiplicity: Triplet
    Trans. Mom.:  0.0000 X   0.0000 Y   0.0000 Z
    Strength   :     0.0000000000
    X: D(   71) --> V(    1) amplitude = -0.1434
    X: D(   74) --> V(    1) amplitude = -0.1375
    X: D(   75) --> V(    1) amplitude =  0.7160
    X: D(   75) --> V(    8) amplitude =  0.0859
    X: D(   75) --> V(   11) amplitude = -0.0976
    X: D(   76) --> V(    5) amplitude = -0.2413
    Y: D(   76) --> V(    5) amplitude = -0.0722
    X: D(   76) --> V(    6) amplitude =  0.0994
    X: D(   77) --> V(    2) amplitude = -0.4450
    X: D(   77) --> V(    8) amplitude =  0.1870
    X: D(   78) --> V(    1) amplitude = -0.0905
    X: D(   78) --> V(    2) amplitude =  0.1250
    X: D(   78) --> V(    8) amplitude = -0.1028
    X: D(   78) --> V(   11) amplitude =  0.1730

 Excited state   5: excitation energy (eV) =        3.3155
 Total energy for state   5:                 -1104.03035352 au
    Multiplicity: Triplet
    Trans. Mom.:  0.0000 X   0.0000 Y   0.0000 Z
    Strength   :     0.0000000000
    X: D(   76) --> V(    1) amplitude =  0.8943
    X: D(   76) --> V(    2) amplitude = -0.3536
    X: D(   76) --> V(    8) amplitude =  0.1976
    X: D(   76) --> V(   11) amplitude = -0.0856

 Excited state   6: excitation energy (eV) =        3.4045
 Total energy for state   6:                 -1104.02708462 au
    Multiplicity: Singlet
    Trans. Mom.: -1.7723 X  -1.2700 Y   0.2547 Z
    Strength   :     0.4019345316
    X: D(   72) --> V(    1) amplitude =  0.0800
    X: D(   73) --> V(    1) amplitude = -0.1040
    X: D(   75) --> V(    1) amplitude = -0.1804
    X: D(   77) --> V(    1) amplitude =  0.9439
    X: D(   78) --> V(    1) amplitude = -0.1314
    X: D(   78) --> V(    2) amplitude =  0.1444

 Excited state   7: excitation energy (eV) =        3.4659
 Total energy for state   7:                 -1104.02482579 au
    Multiplicity: Triplet
    Trans. Mom.:  0.0000 X   0.0000 Y   0.0000 Z
    Strength   :     0.0000000000
    X: D(   71) --> V(    1) amplitude =  0.0728
    X: D(   72) --> V(    1) amplitude =  0.1767
    X: D(   73) --> V(    8) amplitude = -0.0717
    X: D(   74) --> V(    1) amplitude = -0.1300
    X: D(   75) --> V(    2) amplitude =  0.1639
    X: D(   77) --> V(    1) amplitude = -0.3264
    X: D(   77) --> V(    2) amplitude =  0.1416
    X: D(   77) --> V(    8) amplitude =  0.1591
    X: D(   78) --> V(    2) amplitude =  0.7242
    X: D(   78) --> V(    8) amplitude =  0.4145
    X: D(   78) --> V(    9) amplitude = -0.1315

 Excited state   8: excitation energy (eV) =        3.4978
 Total energy for state   8:                 -1104.02365545 au
    Multiplicity: Triplet
    Trans. Mom.:  0.0000 X   0.0000 Y   0.0000 Z
    Strength   :     0.0000000000
    X: D(   74) --> V(    1) amplitude =  0.9051
    X: D(   74) --> V(    2) amplitude =  0.1332
    X: D(   74) --> V(    8) amplitude = -0.2186
    X: D(   74) --> V(   11) amplitude = -0.1138
    X: D(   74) --> V(   29) amplitude =  0.0707
    X: D(   75) --> V(    1) amplitude =  0.2019
    X: D(   78) --> V(    2) amplitude =  0.0938

 Excited state   9: excitation energy (eV) =        3.7007
 Total energy for state   9:                 -1104.01619887 au
    Multiplicity: Singlet
    Trans. Mom.:  0.0717 X   0.0492 Y  -0.0367 Z
    Strength   :     0.0008075621
    X: D(   74) --> V(    1) amplitude =  0.9236
    X: D(   74) --> V(    2) amplitude =  0.1431
    X: D(   74) --> V(    8) amplitude = -0.1889
    X: D(   74) --> V(   11) amplitude = -0.0799
    X: D(   75) --> V(    1) amplitude =  0.2346

 Excited state  10: excitation energy (eV) =        3.9107
 Total energy for state  10:                 -1104.00848061 au
    Multiplicity: Singlet
    Trans. Mom.:  0.3173 X  -0.0399 Y  -0.3571 Z
    Strength   :     0.0220231857
    X: D(   76) --> V(    1) amplitude =  0.9555
    X: D(   76) --> V(    2) amplitude = -0.1931
    X: D(   76) --> V(    8) amplitude =  0.0931
    X: D(   77) --> V(    5) amplitude =  0.1205
    X: D(   78) --> V(    5) amplitude = -0.0919

 Excited state  11: excitation energy (eV) =        3.9384
 Total energy for state  11:                 -1104.00746156 au
    Multiplicity: Triplet
    Trans. Mom.:  0.0000 X   0.0000 Y   0.0000 Z
    Strength   :     0.0000000000
    X: D(   60) --> V(    1) amplitude =  0.0845
    X: D(   72) --> V(    1) amplitude =  0.4323
    X: D(   72) --> V(    2) amplitude =  0.1000
    X: D(   73) --> V(    1) amplitude =  0.4743
    X: D(   75) --> V(    1) amplitude =  0.1339
    X: D(   75) --> V(    2) amplitude = -0.2553
    X: D(   76) --> V(    5) amplitude =  0.1039
    X: D(   77) --> V(    1) amplitude =  0.2136
    X: D(   77) --> V(    2) amplitude =  0.2505
    X: D(   77) --> V(    8) amplitude =  0.2105
    X: D(   78) --> V(    2) amplitude = -0.2757
    X: D(   78) --> V(    8) amplitude =  0.2768
    X: D(   78) --> V(    9) amplitude = -0.0896
    X: D(   78) --> V(   11) amplitude =  0.2319
    X: D(   78) --> V(   13) amplitude = -0.1188
    X: D(   78) --> V(   29) amplitude = -0.1067

 Excited state  12: excitation energy (eV) =        4.3366
 Total energy for state  12:                 -1103.99282724 au
    Multiplicity: Singlet
    Trans. Mom.:  0.8062 X   0.5264 Y  -0.1199 Z
    Strength   :     0.1000295432
    X: D(   74) --> V(    1) amplitude =  0.1400
    X: D(   75) --> V(    1) amplitude = -0.5412
    X: D(   77) --> V(    1) amplitude = -0.2222
    X: D(   77) --> V(    2) amplitude =  0.2286
    X: D(   77) --> V(   11) amplitude = -0.0910
    X: D(   78) --> V(    2) amplitude =  0.7086
    X: D(   78) --> V(    8) amplitude =  0.1895
    X: D(   78) --> V(   11) amplitude = -0.0726

 Excited state  13: excitation energy (eV) =        4.6265
 Total energy for state  13:                 -1103.98217674 au
    Multiplicity: Singlet
    Trans. Mom.:  0.8003 X  -0.6443 Y  -0.7403 Z
    Strength   :     0.1817868614
    X: D(   73) --> V(    1) amplitude =  0.1001
    X: D(   74) --> V(    1) amplitude = -0.1769
    X: D(   75) --> V(    1) amplitude =  0.7326
    X: D(   76) --> V(    5) amplitude = -0.0973
    X: D(   77) --> V(    2) amplitude = -0.0924
    X: D(   77) --> V(   11) amplitude = -0.0907
    X: D(   78) --> V(    1) amplitude = -0.0812
    X: D(   78) --> V(    2) amplitude =  0.5852
    X: D(   78) --> V(    8) amplitude =  0.0858

 Excited state  14: excitation energy (eV) =        5.1803
 Total energy for state  14:                 -1103.96182428 au
    Multiplicity: Singlet
    Trans. Mom.:  0.0443 X  -0.0271 Y  -0.0275 Z
    Strength   :     0.0004381584
    X: D(   77) --> V(    3) amplitude = -0.0831
    X: D(   77) --> V(    4) amplitude = -0.1327
    X: D(   77) --> V(    6) amplitude =  0.1389
    X: D(   77) --> V(   15) amplitude = -0.0766
    X: D(   78) --> V(    3) amplitude =  0.4333
    X: D(   78) --> V(    4) amplitude = -0.7587
    X: D(   78) --> V(    5) amplitude =  0.1246
    X: D(   78) --> V(    6) amplitude =  0.1573
    X: D(   78) --> V(    7) amplitude = -0.1005
    X: D(   78) --> V(   10) amplitude =  0.2057
    X: D(   78) --> V(   12) amplitude =  0.1584
    X: D(   78) --> V(   15) amplitude = -0.1317

 ---------------------------------------------------

                    Orbital Energies (a.u.)
 --------------------------------------------------------------

 Alpha MOs
 -- Occupied --
-19.2997 -19.2492 -19.2470 -19.2444 -19.2442 -19.2390 -19.1522 -10.3617
-10.3470 -10.3388 -10.3362 -10.3260 -10.3252 -10.3239 -10.3216 -10.2988
-10.2838 -10.2764 -10.2607 -10.2586 -10.2438 -10.2330  -1.2257  -1.1763
 -1.1626  -1.1571  -1.1526  -1.1376  -1.0779  -0.9665  -0.9483  -0.9234
 -0.8821  -0.8402  -0.8341  -0.8189  -0.7684  -0.7629  -0.7291  -0.7161
 -0.6882  -0.6719  -0.6596  -0.6403  -0.6314  -0.6127  -0.5934  -0.5884
 -0.5830  -0.5729  -0.5589  -0.5461  -0.5364  -0.5341  -0.5112  -0.5098
 -0.5024  -0.4980  -0.4918  -0.4896  -0.4788  -0.4769  -0.4655  -0.4597
 -0.4587  -0.4534  -0.4511  -0.4443  -0.4366  -0.4219  -0.4167  -0.3811
 -0.3632  -0.3158  -0.3148  -0.2952  -0.2798  -0.2498

                    Cartesian Multipole Moments
                  LMN = < X^L Y^M Z^N >

 Total job time:  4223.77s(wall), 58966.72s(cpu)
        *  Thank you very much for using Q-Chem.  Have a nice day.  *
