 Q-Chem 6.2, Q-Chem, Inc., Pleasanton, CA (2024)
 Q-Chem 6.2.0 for Intel X86 EM64T Linux

User input:
--------------------------------------------------------------
$comment
TDDFT calculation of delphinidin Q4 structure
nprocs=16
mem=64gb
$end

$molecule
0 1
C   -4.8112795    0.9737857    1.7954967
C   -4.7467916   -0.2809365    1.0751437
C   -3.6689411   -0.6253870    0.3215701
C   -2.5418087    0.2573894    0.2109637
C   -2.6212185    1.4920180    0.9245650
C   -3.6914944    1.8570726    1.6893040
C   -1.4074262   -0.0035022   -0.5201994
C   -0.3478753    0.9132092   -0.5773452
C   -0.4440329    2.1111263    0.1077852
O   -1.5701855    2.3500683    0.8257303
C    0.5220628    3.1970005    0.1947189
C    1.5698426    3.3298129   -0.7319057
C    2.4493589    4.3933766   -0.6324086
C    2.3170617    5.3385975    0.3851956
C    1.2804251    5.2027372    1.3105715
C    0.3882644    4.1509520    1.2172558
O   -5.8325909    1.2634990    2.4917419
H   -5.5930041   -0.9531725    1.1531824
O   -3.5700446   -1.7973650   -0.3659524
H   -3.7028071    2.8049134    2.2096552
H   -1.3116010   -0.9364201   -1.0624376
O    0.7840470    0.6242863   -1.2861627
H    1.6941600    2.6287669   -1.5412740
O    3.4895394    4.5997291   -1.5034247
O    3.1629295    6.4002548    0.5215641
O    1.1325877    6.1119709    2.3269963
H   -0.4015643    4.0766593    1.9493947
H   -4.3693856   -2.3268798   -0.2289852
H    0.7096535   -0.2609387   -1.6706486
H    3.8304563    6.3826877   -0.1808581
H    3.5039519    3.9047044   -2.1765279
H    1.8324006    6.7793637    2.2713150
$end

$rem
BASIS  =  def2-ma-TZVP
MEM_STATIC  =  2000
MEM_TOTAL  =  64000
METHOD  =  CAM-B3LYP
SOLVENT_METHOD = pcm
SYMMETRY_IGNORE  =  1
CIS_N_ROOTS = 7
CIS_SINGLETS = true
CIS_TRIPLETS = true
CISTR_PRINT = true
RPA = true
PRINT_ORBITALS = true
SCF_PRINT = 1
SCF_FINAL_PRINT = 2
PRINT_GENERAL_BASIS = true
CISTR_PRINT = true
PRINT_RADII_GYRE = true
MULTIPOLE_ORDER = 5
CIS_AMPL_PRINT = 5
CIS_AMPL_ANAL = true
STATE_ANALYSIS = true
$end

$pcm
Theory   CPCM
Method   SWIG
Solver   Inversion
Radii    Bondi
$end

$solvent
Dielectric         78.39
OpticalDielectric  1.777849
$end

--------------------------------------------------------------

             Standard Nuclear Orientation (Angstroms)
    I     Atom           X                Y                Z
 ----------------------------------------------------------------
    1      C      -4.8112795000     0.9737857000     1.7954967000
    2      C      -4.7467916000    -0.2809365000     1.0751437000
    3      C      -3.6689411000    -0.6253870000     0.3215701000
    4      C      -2.5418087000     0.2573894000     0.2109637000
    5      C      -2.6212185000     1.4920180000     0.9245650000
    6      C      -3.6914944000     1.8570726000     1.6893040000
    7      C      -1.4074262000    -0.0035022000    -0.5201994000
    8      C      -0.3478753000     0.9132092000    -0.5773452000
    9      C      -0.4440329000     2.1111263000     0.1077852000
   10      O      -1.5701855000     2.3500683000     0.8257303000
   11      C       0.5220628000     3.1970005000     0.1947189000
   12      C       1.5698426000     3.3298129000    -0.7319057000
   13      C       2.4493589000     4.3933766000    -0.6324086000
   14      C       2.3170617000     5.3385975000     0.3851956000
   15      C       1.2804251000     5.2027372000     1.3105715000
   16      C       0.3882644000     4.1509520000     1.2172558000
   17      O      -5.8325909000     1.2634990000     2.4917419000
   18      H      -5.5930041000    -0.9531725000     1.1531824000
   19      O      -3.5700446000    -1.7973650000    -0.3659524000
   20      H      -3.7028071000     2.8049134000     2.2096552000
   21      H      -1.3116010000    -0.9364201000    -1.0624376000
   22      O       0.7840470000     0.6242863000    -1.2861627000
   23      H       1.6941600000     2.6287669000    -1.5412740000
   24      O       3.4895394000     4.5997291000    -1.5034247000
   25      O       3.1629295000     6.4002548000     0.5215641000
   26      O       1.1325877000     6.1119709000     2.3269963000
   27      H      -0.4015643000     4.0766593000     1.9493947000
   28      H      -4.3693856000    -2.3268798000    -0.2289852000
   29      H       0.7096535000    -0.2609387000    -1.6706486000
   30      H       3.8304563000     6.3826877000    -0.1808581000
   31      H       3.5039519000     3.9047044000    -2.1765279000
   32      H       1.8324006000     6.7793637000     2.2713150000
 ----------------------------------------------------------------

   16   -1104.1521122252      5.12e-09  Convergence criterion met
 Total energy = -1104.15211223

             TDDFT Excitation Energies
 ---------------------------------------------------

 Excited state   1: excitation energy (eV) =        1.2837
 Total energy for state   1:                 -1104.10493636 au
    Multiplicity: Triplet
    Trans. Mom.:  0.0000 X   0.0000 Y   0.0000 Z
    Strength   :     0.0000000000
    X: D(   73) --> V(    1) amplitude =  0.1160
    X: D(   73) --> V(    2) amplitude = -0.0834
    X: D(   75) --> V(    1) amplitude = -0.0927
    X: D(   77) --> V(    1) amplitude =  0.1246
    X: D(   77) --> V(    2) amplitude =  0.1053
    X: D(   78) --> V(    1) amplitude =  0.9943
    Y: D(   78) --> V(    1) amplitude =  0.2713

 Excited state   2: excitation energy (eV) =        2.5979
 Total energy for state   2:                 -1104.05664128 au
    Multiplicity: Singlet
    Trans. Mom.:  2.5725 X   1.6021 Y  -0.4916 Z
    Strength   :     0.5999511542
    X: D(   75) --> V(    1) amplitude =  0.1174
    X: D(   77) --> V(    1) amplitude =  0.1603
    X: D(   78) --> V(    1) amplitude =  0.9725

 Excited state   3: excitation energy (eV) =        2.7290
 Total energy for state   3:                 -1104.05182205 au
    Multiplicity: Triplet
    Trans. Mom.:  0.0000 X   0.0000 Y   0.0000 Z
    Strength   :     0.0000000000
    X: D(   72) --> V(    1) amplitude =  0.0987
    X: D(   73) --> V(    1) amplitude = -0.1120
    X: D(   75) --> V(    1) amplitude =  0.3289
    X: D(   75) --> V(    2) amplitude =  0.1187
    X: D(   75) --> V(    7) amplitude =  0.1581
    X: D(   76) --> V(    1) amplitude =  0.0895
    X: D(   76) --> V(    5) amplitude =  0.1437
    X: D(   77) --> V(    1) amplitude =  0.7281
    Y: D(   77) --> V(    1) amplitude =  0.0707
    X: D(   77) --> V(    7) amplitude = -0.1089
    X: D(   77) --> V(   11) amplitude =  0.0897
    X: D(   78) --> V(    2) amplitude =  0.4671
    Y: D(   78) --> V(    2) amplitude =  0.0910

 Excited state   4: excitation energy (eV) =        2.9169
 Total energy for state   4:                 -1104.04491658 au
    Multiplicity: Triplet
    Trans. Mom.:  0.0000 X   0.0000 Y   0.0000 Z
    Strength   :     0.0000000000
    X: D(   71) --> V(    1) amplitude =  0.0913
    X: D(   72) --> V(    1) amplitude =  0.0714
    X: D(   73) --> V(    1) amplitude =  0.1891
    X: D(   75) --> V(    1) amplitude =  0.8160
    Y: D(   75) --> V(    1) amplitude =  0.0935
    X: D(   75) --> V(    5) amplitude =  0.0714
    X: D(   75) --> V(    7) amplitude =  0.2040
    X: D(   75) --> V(   11) amplitude =  0.0814
    X: D(   76) --> V(    5) amplitude = -0.1229
    X: D(   77) --> V(    1) amplitude = -0.1258
    X: D(   77) --> V(    2) amplitude =  0.1145
    X: D(   77) --> V(    5) amplitude =  0.0821
    X: D(   77) --> V(    7) amplitude =  0.1605
    X: D(   78) --> V(    2) amplitude = -0.3146
    X: D(   78) --> V(    7) amplitude = -0.0976

 Excited state   5: excitation energy (eV) =        3.3616
 Total energy for state   5:                 -1104.02857453 au
    Multiplicity: Triplet
    Trans. Mom.:  0.0000 X   0.0000 Y   0.0000 Z
    Strength   :     0.0000000000
    X: D(   76) --> V(    1) amplitude =  0.8814
    X: D(   76) --> V(    2) amplitude = -0.3532
    X: D(   76) --> V(    5) amplitude = -0.0966
    X: D(   76) --> V(    7) amplitude = -0.1643
    X: D(   76) --> V(   11) amplitude =  0.1060
    X: D(   77) --> V(    1) amplitude = -0.1384
    X: D(   77) --> V(    2) amplitude =  0.0721

 Excited state   6: excitation energy (eV) =        3.5397
 Total energy for state   6:                 -1104.02203153 au
    Multiplicity: Triplet
    Trans. Mom.:  0.0000 X   0.0000 Y   0.0000 Z
    Strength   :     0.0000000000
    X: D(   71) --> V(    1) amplitude =  0.1502
    X: D(   73) --> V(    1) amplitude = -0.3598
    X: D(   73) --> V(    7) amplitude =  0.0827
    X: D(   73) --> V(   30) amplitude =  0.0724
    X: D(   75) --> V(    1) amplitude =  0.0880
    X: D(   75) --> V(    2) amplitude = -0.0724
    X: D(   76) --> V(    1) amplitude = -0.0763
    X: D(   76) --> V(    2) amplitude =  0.1123
    X: D(   76) --> V(    5) amplitude = -0.1663
    X: D(   77) --> V(    1) amplitude = -0.3231
    X: D(   77) --> V(    2) amplitude =  0.4148
    X: D(   78) --> V(    2) amplitude =  0.5109
    X: D(   78) --> V(    7) amplitude = -0.3052
    X: D(   78) --> V(   11) amplitude =  0.2013
    X: D(   78) --> V(   12) amplitude =  0.1074
    X: D(   78) --> V(   13) amplitude =  0.0911
    X: D(   78) --> V(   17) amplitude =  0.1102

 Excited state   7: excitation energy (eV) =        3.6516
 Total energy for state   7:                 -1104.01791987 au
    Multiplicity: Singlet
    Trans. Mom.: -1.2172 X  -0.8432 Y   0.1724 Z
    Strength   :     0.1988081179
    X: D(   73) --> V(    1) amplitude = -0.1561
    X: D(   75) --> V(    1) amplitude =  0.5247
    X: D(   75) --> V(    2) amplitude =  0.1170
    X: D(   77) --> V(    1) amplitude =  0.7885
    X: D(   78) --> V(    1) amplitude = -0.1851
    X: D(   78) --> V(    2) amplitude =  0.1255

 Excited state   8: excitation energy (eV) =        3.7117
 Total energy for state   8:                 -1104.01571028 au
    Multiplicity: Triplet
    Trans. Mom.:  0.0000 X   0.0000 Y   0.0000 Z
    Strength   :     0.0000000000
    X: D(   74) --> V(    1) amplitude =  0.8808
    X: D(   74) --> V(    2) amplitude =  0.3514
    X: D(   74) --> V(   11) amplitude =  0.2064
    X: D(   74) --> V(   12) amplitude =  0.1214
    X: D(   74) --> V(   30) amplitude = -0.1114

 Excited state   9: excitation energy (eV) =        3.8970
 Total energy for state   9:                 -1104.00889902 au
    Multiplicity: Triplet
    Trans. Mom.:  0.0000 X   0.0000 Y   0.0000 Z
    Strength   :     0.0000000000
    X: D(   59) --> V(    1) amplitude = -0.0752
    X: D(   72) --> V(    1) amplitude =  0.1753
    X: D(   73) --> V(    1) amplitude =  0.4872
    X: D(   73) --> V(    2) amplitude =  0.1642
    X: D(   75) --> V(    1) amplitude =  0.0797
    X: D(   76) --> V(    1) amplitude = -0.0812
    X: D(   76) --> V(    2) amplitude = -0.0805
    X: D(   76) --> V(    5) amplitude =  0.3886
    X: D(   76) --> V(    6) amplitude = -0.1123
    X: D(   76) --> V(    7) amplitude = -0.1298
    X: D(   77) --> V(    1) amplitude = -0.4208
    X: D(   77) --> V(    2) amplitude = -0.1657
    X: D(   77) --> V(   11) amplitude =  0.0877
    X: D(   78) --> V(    1) amplitude =  0.0889
    X: D(   78) --> V(    2) amplitude =  0.4506
    X: D(   78) --> V(   11) amplitude = -0.0746

 Excited state  10: excitation energy (eV) =        3.9452
 Total energy for state  10:                 -1104.00713024 au
    Multiplicity: Singlet
    Trans. Mom.: -0.3519 X   0.0320 Y   0.3585 Z
    Strength   :     0.0244923089
    X: D(   75) --> V(    1) amplitude =  0.0796
    X: D(   76) --> V(    1) amplitude =  0.9419
    X: D(   76) --> V(    2) amplitude = -0.1876
    X: D(   76) --> V(    7) amplitude = -0.0874
    X: D(   77) --> V(    1) amplitude = -0.1237
    X: D(   77) --> V(    5) amplitude = -0.1032
    X: D(   78) --> V(    5) amplitude =  0.1226

 Excited state  11: excitation energy (eV) =        3.9923
 Total energy for state  11:                 -1104.00539929 au
    Multiplicity: Singlet
    Trans. Mom.:  0.0195 X  -0.0169 Y  -0.0124 Z
    Strength   :     0.0000801127
    X: D(   74) --> V(    1) amplitude =  0.9129
    X: D(   74) --> V(    2) amplitude =  0.3089
    X: D(   74) --> V(   11) amplitude =  0.1734
    X: D(   74) --> V(   12) amplitude =  0.1021
    X: D(   74) --> V(   30) amplitude = -0.0863

 Excited state  12: excitation energy (eV) =        4.2396
 Total energy for state  12:                 -1103.99631121 au
    Multiplicity: Singlet
    Trans. Mom.:  0.1144 X   0.8133 Y   0.3830 Z
    Strength   :     0.0852906966
    X: D(   73) --> V(    1) amplitude =  0.0732
    X: D(   75) --> V(    1) amplitude =  0.7372
    X: D(   75) --> V(    2) amplitude =  0.0795
    X: D(   76) --> V(    1) amplitude = -0.1333
    X: D(   77) --> V(    1) amplitude = -0.5281
    X: D(   77) --> V(    2) amplitude =  0.1911
    X: D(   78) --> V(    2) amplitude =  0.2496
    X: D(   78) --> V(    7) amplitude = -0.1420

 Excited state  13: excitation energy (eV) =        4.7576
 Total energy for state  13:                 -1103.97727425 au
    Multiplicity: Singlet
    Trans. Mom.:  0.9063 X  -1.0192 Y  -0.9815 Z
    Strength   :     0.3291134579
    X: D(   73) --> V(    1) amplitude =  0.1764
    X: D(   75) --> V(    1) amplitude = -0.3050
    X: D(   75) --> V(    7) amplitude =  0.1137
    X: D(   76) --> V(    5) amplitude =  0.0839
    X: D(   77) --> V(    1) amplitude =  0.0773
    X: D(   77) --> V(    7) amplitude = -0.0734
    X: D(   78) --> V(    2) amplitude =  0.8715
    X: D(   78) --> V(    5) amplitude = -0.0845
    X: D(   78) --> V(    7) amplitude = -0.2034

 Excited state  14: excitation energy (eV) =        5.2242
 Total energy for state  14:                 -1103.96012598 au
    Multiplicity: Singlet
    Trans. Mom.:  0.7241 X  -0.4550 Y  -0.5898 Z
    Strength   :     0.1381204099
    X: D(   72) --> V(    1) amplitude = -0.1107
    X: D(   73) --> V(    1) amplitude = -0.8367
    X: D(   75) --> V(    1) amplitude = -0.0802
    X: D(   77) --> V(    1) amplitude = -0.1178
    X: D(   77) --> V(    2) amplitude =  0.1167
    X: D(   77) --> V(    7) amplitude =  0.0792
    X: D(   78) --> V(    2) amplitude =  0.2127
    X: D(   78) --> V(    3) amplitude =  0.2298
    X: D(   78) --> V(    4) amplitude =  0.1958
    X: D(   78) --> V(    5) amplitude =  0.1255
    X: D(   78) --> V(    7) amplitude =  0.1460
    X: D(   78) --> V(    8) amplitude = -0.1102
    X: D(   78) --> V(   12) amplitude =  0.1046

 ---------------------------------------------------

                    Orbital Energies (a.u.)
 --------------------------------------------------------------

 Alpha MOs
 -- Occupied --
-19.2946 -19.2483 -19.2463 -19.2457 -19.2439 -19.2384 -19.1550 -10.3571
-10.3459 -10.3373 -10.3370 -10.3251 -10.3239 -10.3229 -10.3214 -10.3002
-10.2865 -10.2827 -10.2593 -10.2572 -10.2462 -10.2372  -1.2207  -1.1753
 -1.1614  -1.1599  -1.1519  -1.1368  -1.0783  -0.9667  -0.9536  -0.9207
 -0.8768  -0.8424  -0.8364  -0.8218  -0.7689  -0.7532  -0.7272  -0.7142
 -0.7118  -0.6595  -0.6488  -0.6428  -0.6322  -0.6079  -0.5990  -0.5922
 -0.5798  -0.5733  -0.5629  -0.5501  -0.5360  -0.5334  -0.5163  -0.5097
 -0.5050  -0.4959  -0.4906  -0.4879  -0.4768  -0.4750  -0.4674  -0.4608
 -0.4536  -0.4522  -0.4502  -0.4413  -0.4388  -0.4218  -0.4181  -0.3951
 -0.3524  -0.3149  -0.3068  -0.2943  -0.2922  -0.2501

                    Cartesian Multipole Moments
                  LMN = < X^L Y^M Z^N >

 Total job time:  4676.41s(wall), 62735.40s(cpu)
        *  Thank you very much for using Q-Chem.  Have a nice day.  *
