 Q-Chem 6.2, Q-Chem, Inc., Pleasanton, CA (2024)
 Q-Chem 6.2.0 for Intel X86 EM64T Linux

User input:
--------------------------------------------------------------
$comment
TDDFT calculation of delphinidin H structure
nprocs=16
mem=64gb
$end

$molecule
1 1
C   -4.7342706    0.9543969    1.7915167
C   -4.7327082   -0.2721935    1.1002272
C   -3.6549804   -0.6241958    0.3249190
C   -2.5376944    0.2536086    0.2153940
C   -2.5972193    1.4693210    0.9297724
C   -3.6679347    1.8409045    1.7181080
C   -1.3936335   -0.0064880   -0.5372000
C   -0.3485761    0.8990591   -0.5945451
C   -0.4443713    2.1083676    0.1144807
O   -1.5544479    2.3258229    0.8349915
C    0.5162272    3.1870124    0.1995414
C    1.5683217    3.3165694   -0.7261640
C    2.4391574    4.3845900   -0.6314472
C    2.2980335    5.3334709    0.3845957
C    1.2591593    5.1986788    1.3126457
C    0.3724464    4.1462418    1.2195514
O   -5.7875273    1.3143331    2.5604093
H   -5.5842638   -0.9366178    1.1851975
O   -3.5804764   -1.7868288   -0.3617979
H   -3.6764605    2.7808817    2.2498448
H   -1.3054937   -0.9376860   -1.0833565
O    0.7813179    0.6396327   -1.2995817
H    1.6976205    2.6114270   -1.5304984
O    3.4788427    4.5972243   -1.4973383
O    3.1345065    6.3930134    0.5181901
O    1.1104818    6.1090867    2.3238088
H   -0.4185258    4.0693160    1.9500523
H   -6.4753818    0.6319614    2.5419766
H   -4.3791467   -2.3168620   -0.2193653
H    0.7203551   -0.2343113   -1.7133638
H    3.8075154    6.3783391   -0.1800558
H    3.5026792    3.9027446   -2.1709836
H    1.8090176    6.7781494    2.2689242
$end

$rem
BASIS  =  def2-ma-TZVP
MEM_STATIC  =  2000
MEM_TOTAL  =  64000
METHOD  =  CAM-B3LYP
SOLVENT_METHOD = pcm
SYMMETRY_IGNORE  =  1
CIS_N_ROOTS = 7
CIS_SINGLETS = true
CIS_TRIPLETS = true
CISTR_PRINT = true
RPA = true
PRINT_ORBITALS = true
SCF_PRINT = 1
SCF_FINAL_PRINT = 2
PRINT_GENERAL_BASIS = true
CISTR_PRINT = true
PRINT_RADII_GYRE = true
MULTIPOLE_ORDER = 5
CIS_AMPL_PRINT = 5
CIS_AMPL_ANAL = true
STATE_ANALYSIS = true
$end

$pcm
Theory   CPCM
Method   SWIG
Solver   Inversion
Radii    Bondi
$end

$solvent
Dielectric         78.39
OpticalDielectric  1.777849
$end

--------------------------------------------------------------

             Standard Nuclear Orientation (Angstroms)
    I     Atom           X                Y                Z
 ----------------------------------------------------------------
    1      C      -4.7342706000     0.9543969000     1.7915167000
    2      C      -4.7327082000    -0.2721935000     1.1002272000
    3      C      -3.6549804000    -0.6241958000     0.3249190000
    4      C      -2.5376944000     0.2536086000     0.2153940000
    5      C      -2.5972193000     1.4693210000     0.9297724000
    6      C      -3.6679347000     1.8409045000     1.7181080000
    7      C      -1.3936335000    -0.0064880000    -0.5372000000
    8      C      -0.3485761000     0.8990591000    -0.5945451000
    9      C      -0.4443713000     2.1083676000     0.1144807000
   10      O      -1.5544479000     2.3258229000     0.8349915000
   11      C       0.5162272000     3.1870124000     0.1995414000
   12      C       1.5683217000     3.3165694000    -0.7261640000
   13      C       2.4391574000     4.3845900000    -0.6314472000
   14      C       2.2980335000     5.3334709000     0.3845957000
   15      C       1.2591593000     5.1986788000     1.3126457000
   16      C       0.3724464000     4.1462418000     1.2195514000
   17      O      -5.7875273000     1.3143331000     2.5604093000
   18      H      -5.5842638000    -0.9366178000     1.1851975000
   19      O      -3.5804764000    -1.7868288000    -0.3617979000
   20      H      -3.6764605000     2.7808817000     2.2498448000
   21      H      -1.3054937000    -0.9376860000    -1.0833565000
   22      O       0.7813179000     0.6396327000    -1.2995817000
   23      H       1.6976205000     2.6114270000    -1.5304984000
   24      O       3.4788427000     4.5972243000    -1.4973383000
   25      O       3.1345065000     6.3930134000     0.5181901000
   26      O       1.1104818000     6.1090867000     2.3238088000
   27      H      -0.4185258000     4.0693160000     1.9500523000
   28      H      -6.4753818000     0.6319614000     2.5419766000
   29      H      -4.3791467000    -2.3168620000    -0.2193653000
   30      H       0.7203551000    -0.2343113000    -1.7133638000
   31      H       3.8075154000     6.3783391000    -0.1800558000
   32      H       3.5026792000     3.9027446000    -2.1709836000
   33      H       1.8090176000     6.7781494000     2.2689242000
 ----------------------------------------------------------------

   15   -1104.6054561360      7.51e-09  Convergence criterion met
 Total energy = -1104.60545614

             TDDFT Excitation Energies
 ---------------------------------------------------

 Excited state   1: excitation energy (eV) =        1.5912
 Total energy for state   1:                 -1104.54698237 au
    Multiplicity: Triplet
    Trans. Mom.:  0.0000 X   0.0000 Y   0.0000 Z
    Strength   :     0.0000000000
    X: D(   74) --> V(    1) amplitude =  0.1804
    X: D(   74) --> V(   10) amplitude =  0.0785
    X: D(   75) --> V(    1) amplitude = -0.1447
    X: D(   75) --> V(    2) amplitude = -0.0708
    X: D(   76) --> V(    1) amplitude =  0.2242
    X: D(   76) --> V(    2) amplitude =  0.0811
    X: D(   76) --> V(    4) amplitude = -0.0953
    X: D(   77) --> V(    6) amplitude = -0.0724
    X: D(   78) --> V(    1) amplitude =  0.9462
    Y: D(   78) --> V(    1) amplitude =  0.1930

 Excited state   2: excitation energy (eV) =        2.5584
 Total energy for state   2:                 -1104.51143833 au
    Multiplicity: Triplet
    Trans. Mom.:  0.0000 X   0.0000 Y   0.0000 Z
    Strength   :     0.0000000000
    X: D(   73) --> V(    1) amplitude =  0.1359
    X: D(   75) --> V(    4) amplitude = -0.1376
    X: D(   76) --> V(    1) amplitude =  0.8514
    Y: D(   76) --> V(    1) amplitude =  0.0875
    X: D(   76) --> V(   10) amplitude = -0.1113
    X: D(   77) --> V(    1) amplitude = -0.1108
    X: D(   77) --> V(    6) amplitude =  0.1160
    X: D(   78) --> V(    1) amplitude = -0.1788
    X: D(   78) --> V(    2) amplitude =  0.3454
    Y: D(   78) --> V(    2) amplitude =  0.0772
    X: D(   78) --> V(    4) amplitude = -0.1488
    X: D(   78) --> V(   10) amplitude =  0.1030

 Excited state   3: excitation energy (eV) =        2.7419
 Total energy for state   3:                 -1104.50469454 au
    Multiplicity: Singlet
    Trans. Mom.: -2.5204 X  -2.0990 Y   0.2022 Z
    Strength   :     0.7254268282
    X: D(   76) --> V(    1) amplitude =  0.2592
    X: D(   78) --> V(    1) amplitude =  0.9555

 Excited state   4: excitation energy (eV) =        2.8173
 Total energy for state   4:                 -1104.50192315 au
    Multiplicity: Triplet
    Trans. Mom.:  0.0000 X   0.0000 Y   0.0000 Z
    Strength   :     0.0000000000
    X: D(   76) --> V(    1) amplitude =  0.1110
    X: D(   77) --> V(    1) amplitude =  0.9226
    X: D(   77) --> V(    2) amplitude = -0.2630
    X: D(   77) --> V(    4) amplitude =  0.1608
    X: D(   77) --> V(   10) amplitude = -0.1574

 Excited state   5: excitation energy (eV) =        3.2808
 Total energy for state   5:                 -1104.48489063 au
    Multiplicity: Triplet
    Trans. Mom.:  0.0000 X   0.0000 Y   0.0000 Z
    Strength   :     0.0000000000
    X: D(   72) --> V(    1) amplitude =  0.1778
    X: D(   74) --> V(    1) amplitude = -0.0794
    X: D(   75) --> V(    1) amplitude =  0.8648
    Y: D(   75) --> V(    1) amplitude =  0.0771
    X: D(   75) --> V(    4) amplitude = -0.1270
    X: D(   76) --> V(    2) amplitude =  0.2207
    X: D(   76) --> V(    4) amplitude = -0.2229
    X: D(   77) --> V(    6) amplitude = -0.0843
    X: D(   78) --> V(    1) amplitude =  0.0792
    X: D(   78) --> V(    2) amplitude = -0.0948
    X: D(   78) --> V(   10) amplitude = -0.1886

 Excited state   6: excitation energy (eV) =        3.4126
 Total energy for state   6:                 -1104.48004540 au
    Multiplicity: Singlet
    Trans. Mom.: -0.2498 X  -0.4300 Y  -0.2282 Z
    Strength   :     0.0250282699
    X: D(   75) --> V(    1) amplitude = -0.1280
    X: D(   76) --> V(    1) amplitude = -0.4193
    X: D(   77) --> V(    1) amplitude =  0.8710
    X: D(   77) --> V(    2) amplitude = -0.1057
    X: D(   77) --> V(    4) amplitude =  0.0783
    X: D(   78) --> V(    1) amplitude =  0.0966
    X: D(   78) --> V(    6) amplitude =  0.0748

 Excited state   7: excitation energy (eV) =        3.4662
 Total energy for state   7:                 -1104.47807424 au
    Multiplicity: Singlet
    Trans. Mom.:  1.0410 X   0.6551 Y  -0.2812 Z
    Strength   :     0.1351939815
    X: D(   75) --> V(    1) amplitude =  0.2179
    X: D(   76) --> V(    1) amplitude =  0.8153
    X: D(   77) --> V(    1) amplitude =  0.4462
    X: D(   77) --> V(    2) amplitude = -0.0777
    X: D(   78) --> V(    1) amplitude = -0.2167
    X: D(   78) --> V(    2) amplitude =  0.0975

 Excited state   8: excitation energy (eV) =        3.6862
 Total energy for state   8:                 -1104.46999145 au
    Multiplicity: Triplet
    Trans. Mom.:  0.0000 X   0.0000 Y   0.0000 Z
    Strength   :     0.0000000000
    X: D(   74) --> V(    2) amplitude =  0.0887
    X: D(   74) --> V(   10) amplitude =  0.0846
    X: D(   74) --> V(   26) amplitude =  0.0883
    X: D(   75) --> V(    2) amplitude = -0.2540
    X: D(   75) --> V(   10) amplitude =  0.0817
    X: D(   76) --> V(    1) amplitude = -0.3505
    X: D(   76) --> V(    2) amplitude =  0.2435
    X: D(   76) --> V(   10) amplitude = -0.1259
    X: D(   77) --> V(    6) amplitude =  0.2144
    X: D(   78) --> V(    1) amplitude =  0.1038
    X: D(   78) --> V(    2) amplitude =  0.7758
    Y: D(   78) --> V(    2) amplitude =  0.0833

 Excited state   9: excitation energy (eV) =        3.9020
 Total energy for state   9:                 -1104.46206183 au
    Multiplicity: Triplet
    Trans. Mom.:  0.0000 X   0.0000 Y   0.0000 Z
    Strength   :     0.0000000000
    X: D(   60) --> V(    1) amplitude = -0.1294
    X: D(   72) --> V(    1) amplitude =  0.1169
    X: D(   73) --> V(    1) amplitude =  0.3229
    X: D(   73) --> V(   10) amplitude =  0.0715
    X: D(   74) --> V(    1) amplitude =  0.7542
    X: D(   74) --> V(    2) amplitude =  0.1534
    X: D(   75) --> V(    1) amplitude =  0.1947
    X: D(   75) --> V(    2) amplitude =  0.1403
    X: D(   76) --> V(    1) amplitude = -0.0923
    X: D(   76) --> V(    2) amplitude = -0.0969
    X: D(   76) --> V(    4) amplitude =  0.2152
    X: D(   76) --> V(   10) amplitude =  0.0840
    X: D(   77) --> V(    6) amplitude =  0.1525
    X: D(   78) --> V(    4) amplitude =  0.1220
    X: D(   78) --> V(   10) amplitude =  0.2446

 Excited state  10: excitation energy (eV) =        4.0633
 Total energy for state  10:                 -1104.45613245 au
    Multiplicity: Triplet
    Trans. Mom.:  0.0000 X   0.0000 Y   0.0000 Z
    Strength   :     0.0000000000
    X: D(   72) --> V(    1) amplitude = -0.1161
    X: D(   73) --> V(    1) amplitude = -0.0883
    X: D(   75) --> V(    1) amplitude =  0.1151
    X: D(   75) --> V(    2) amplitude = -0.0866
    X: D(   75) --> V(    4) amplitude = -0.1878
    X: D(   76) --> V(    1) amplitude = -0.1220
    X: D(   76) --> V(    2) amplitude = -0.4386
    X: D(   76) --> V(    4) amplitude = -0.3634
    X: D(   76) --> V(   10) amplitude = -0.0747
    X: D(   77) --> V(    4) amplitude = -0.1209
    X: D(   77) --> V(    6) amplitude =  0.5892
    Y: D(   77) --> V(    6) amplitude =  0.0829
    X: D(   77) --> V(    7) amplitude = -0.0826
    X: D(   78) --> V(    1) amplitude =  0.1053
    X: D(   78) --> V(    2) amplitude = -0.1571
    X: D(   78) --> V(    4) amplitude = -0.2612
    X: D(   78) --> V(    6) amplitude = -0.1072
    X: D(   78) --> V(   10) amplitude =  0.1076

 Excited state  11: excitation energy (eV) =        4.3264
 Total energy for state  11:                 -1104.44646465 au
    Multiplicity: Singlet
    Trans. Mom.:  0.0874 X  -0.4982 Y  -0.3280 Z
    Strength   :     0.0385205703
    X: D(   72) --> V(    1) amplitude =  0.0799
    X: D(   75) --> V(    1) amplitude =  0.8757
    X: D(   75) --> V(    2) amplitude =  0.0784
    X: D(   76) --> V(    1) amplitude = -0.2629
    X: D(   76) --> V(    2) amplitude =  0.2875
    X: D(   78) --> V(    1) amplitude =  0.0857
    X: D(   78) --> V(    2) amplitude =  0.1526
    X: D(   78) --> V(    4) amplitude =  0.1047

 Excited state  12: excitation energy (eV) =        4.9315
 Total energy for state  12:                 -1104.42422727 au
    Multiplicity: Singlet
    Trans. Mom.: -0.8236 X   0.4689 Y   0.6613 Z
    Strength   :     0.1613514894
    X: D(   74) --> V(    1) amplitude =  0.3458
    X: D(   75) --> V(    1) amplitude = -0.2342
    X: D(   75) --> V(    4) amplitude = -0.1211
    X: D(   76) --> V(    2) amplitude =  0.2483
    X: D(   76) --> V(    6) amplitude =  0.0716
    X: D(   76) --> V(   10) amplitude = -0.1226
    X: D(   77) --> V(    6) amplitude =  0.0888
    X: D(   78) --> V(    2) amplitude =  0.8138
    X: D(   78) --> V(    4) amplitude =  0.1668

 Excited state  13: excitation energy (eV) =        5.2680
 Total energy for state  13:                 -1104.41186224 au
    Multiplicity: Singlet
    Trans. Mom.: -0.3031 X   0.7423 Y   0.5163 Z
    Strength   :     0.1173816162
    X: D(   73) --> V(    1) amplitude = -0.1401
    X: D(   74) --> V(    1) amplitude = -0.7823
    X: D(   75) --> V(    2) amplitude = -0.1316
    X: D(   76) --> V(    2) amplitude = -0.2083
    X: D(   76) --> V(    4) amplitude = -0.1433
    X: D(   78) --> V(    2) amplitude =  0.4300
    X: D(   78) --> V(    4) amplitude = -0.1978
    X: D(   78) --> V(    6) amplitude = -0.1605

 Excited state  14: excitation energy (eV) =        5.3682
 Total energy for state  14:                 -1104.40817726 au
    Multiplicity: Singlet
    Trans. Mom.:  1.0034 X   0.1362 Y  -0.5192 Z
    Strength   :     0.1703143389
    X: D(   74) --> V(    1) amplitude =  0.2612
    X: D(   75) --> V(    1) amplitude =  0.1390
    X: D(   75) --> V(    6) amplitude = -0.1116
    X: D(   76) --> V(    2) amplitude = -0.2734
    X: D(   76) --> V(    4) amplitude = -0.1130
    X: D(   76) --> V(    6) amplitude =  0.2035
    X: D(   76) --> V(   10) amplitude =  0.0846
    X: D(   77) --> V(    1) amplitude =  0.1668
    X: D(   77) --> V(    2) amplitude =  0.5351
    X: D(   77) --> V(    4) amplitude = -0.1572
    X: D(   77) --> V(    6) amplitude = -0.0987
    X: D(   77) --> V(   10) amplitude =  0.2723
    X: D(   78) --> V(    6) amplitude = -0.5353
    X: D(   78) --> V(    7) amplitude =  0.0720

 ---------------------------------------------------

                    Orbital Energies (a.u.)
 --------------------------------------------------------------

 Alpha MOs
 -- Occupied --
-19.3247 -19.2589 -19.2581 -19.2574 -19.2567 -19.2484 -19.2431 -10.3893
-10.3672 -10.3582 -10.3574 -10.3564 -10.3362 -10.3321 -10.3305 -10.3169
-10.3018 -10.2931 -10.2729 -10.2703 -10.2680 -10.2673  -1.2524  -1.1840
 -1.1768  -1.1763  -1.1727  -1.1576  -1.1438  -0.9898  -0.9690  -0.9409
 -0.9043  -0.8624  -0.8472  -0.8455  -0.7910  -0.7843  -0.7371  -0.7347
 -0.7301  -0.7011  -0.6718  -0.6607  -0.6487  -0.6408  -0.6247  -0.6038
 -0.5998  -0.5976  -0.5927  -0.5694  -0.5640  -0.5532  -0.5417  -0.5294
 -0.5284  -0.5202  -0.5091  -0.5073  -0.5027  -0.4945  -0.4888  -0.4819
 -0.4752  -0.4685  -0.4620  -0.4590  -0.4508  -0.4489  -0.4351  -0.4338
 -0.4095  -0.3763  -0.3348  -0.3059  -0.3016  -0.2769

                    Cartesian Multipole Moments
                  LMN = < X^L Y^M Z^N >

 Total job time:  4351.26s(wall), 59608.75s(cpu)
        *  Thank you very much for using Q-Chem.  Have a nice day.  *
