 Q-Chem 6.2, Q-Chem, Inc., Pleasanton, CA (2024)
 Q-Chem 6.2.0 for Intel X86 EM64T Linux

User input:
--------------------------------------------------------------
$comment
TDDFT calculation of delphinidin Q1 structure
nprocs=16
mem=64gb
$end

$molecule
0 1
C   -4.9313525    1.1470293    1.3855771
C   -4.8952022   -0.1027898    0.7517777
C   -3.7473106   -0.5096119    0.1030517
C   -2.6057371    0.3258817    0.0694969
C   -2.6984989    1.5646207    0.7199611
C   -3.8337710    1.9978668    1.3810220
C   -1.3858867    0.0070428   -0.5659652
C   -0.3307949    0.8776441   -0.5605047
C   -0.4450469    2.1421808    0.0925223
O   -1.6263583    2.3998117    0.7047046
C    0.5007195    3.1892225    0.2036979
C    1.7785267    3.1467479   -0.4276855
C    2.6452323    4.1944175   -0.3038593
C    2.3325806    5.3671792    0.4515639
C    1.0439373    5.3834849    1.0807112
C    0.1634510    4.3491772    0.9648178
O   -6.0515592    1.5775800    2.0303948
H   -5.7674910   -0.7456102    0.7703779
O   -3.6497024   -1.7101776   -0.5293414
H   -3.8647124    2.9609830    1.8694476
H   -1.2743238   -0.9444285   -1.0706010
O    0.8509218    0.5703441   -1.1647960
H    2.0751579    2.2971667   -1.0176261
O    3.8783063    4.1642756   -0.9148763
O    3.1454159    6.3399129    0.5619250
O    0.7337364    6.5017220    1.8139985
H   -0.7919965    4.4198273    1.4626266
H   -6.7525666    0.9126417    1.9665000
H   -4.4812269   -2.1990511   -0.4434312
H    0.7957779   -0.3156132   -1.5523682
H    1.5048717    7.0929681    1.7478412
H    4.3101859    5.0092240   -0.6978105
$end

$rem
BASIS  =  def2-ma-TZVP
MEM_STATIC  =  2000
MEM_TOTAL  =  64000
METHOD  =  CAM-B3LYP
SOLVENT_METHOD = pcm
SYMMETRY_IGNORE  =  1
CIS_N_ROOTS = 7
CIS_SINGLETS = true
CIS_TRIPLETS = true
CISTR_PRINT = true
RPA = true
PRINT_ORBITALS = true
SCF_PRINT = 1
SCF_FINAL_PRINT = 2
PRINT_GENERAL_BASIS = true
CISTR_PRINT = true
PRINT_RADII_GYRE = true
MULTIPOLE_ORDER = 5
CIS_AMPL_PRINT = 5
CIS_AMPL_ANAL = true
STATE_ANALYSIS = true
$end

$pcm
Theory   CPCM
Method   SWIG
Solver   Inversion
Radii    Bondi
$end

$solvent
Dielectric         78.39
OpticalDielectric  1.777849
$end

--------------------------------------------------------------

             Standard Nuclear Orientation (Angstroms)
    I     Atom           X                Y                Z
 ----------------------------------------------------------------
    1      C      -4.9313525000     1.1470293000     1.3855771000
    2      C      -4.8952022000    -0.1027898000     0.7517777000
    3      C      -3.7473106000    -0.5096119000     0.1030517000
    4      C      -2.6057371000     0.3258817000     0.0694969000
    5      C      -2.6984989000     1.5646207000     0.7199611000
    6      C      -3.8337710000     1.9978668000     1.3810220000
    7      C      -1.3858867000     0.0070428000    -0.5659652000
    8      C      -0.3307949000     0.8776441000    -0.5605047000
    9      C      -0.4450469000     2.1421808000     0.0925223000
   10      O      -1.6263583000     2.3998117000     0.7047046000
   11      C       0.5007195000     3.1892225000     0.2036979000
   12      C       1.7785267000     3.1467479000    -0.4276855000
   13      C       2.6452323000     4.1944175000    -0.3038593000
   14      C       2.3325806000     5.3671792000     0.4515639000
   15      C       1.0439373000     5.3834849000     1.0807112000
   16      C       0.1634510000     4.3491772000     0.9648178000
   17      O      -6.0515592000     1.5775800000     2.0303948000
   18      H      -5.7674910000    -0.7456102000     0.7703779000
   19      O      -3.6497024000    -1.7101776000    -0.5293414000
   20      H      -3.8647124000     2.9609830000     1.8694476000
   21      H      -1.2743238000    -0.9444285000    -1.0706010000
   22      O       0.8509218000     0.5703441000    -1.1647960000
   23      H       2.0751579000     2.2971667000    -1.0176261000
   24      O       3.8783063000     4.1642756000    -0.9148763000
   25      O       3.1454159000     6.3399129000     0.5619250000
   26      O       0.7337364000     6.5017220000     1.8139985000
   27      H      -0.7919965000     4.4198273000     1.4626266000
   28      H      -6.7525666000     0.9126417000     1.9665000000
   29      H      -4.4812269000    -2.1990511000    -0.4434312000
   30      H       0.7957779000    -0.3156132000    -1.5523682000
   31      H       1.5048717000     7.0929681000     1.7478412000
   32      H       4.3101859000     5.0092240000    -0.6978105000
 ----------------------------------------------------------------

   16   -1104.1581394827      4.36e-09  Convergence criterion met
 Total energy = -1104.15813948

             TDDFT Excitation Energies
 ---------------------------------------------------

 Excited state   1: excitation energy (eV) =        0.9750
 Total energy for state   1:                 -1104.12230783 au
    Multiplicity: Triplet
    Trans. Mom.:  0.0000 X   0.0000 Y   0.0000 Z
    Strength   :     0.0000000000
    X: D(   73) --> V(    1) amplitude =  0.0925
    X: D(   75) --> V(    2) amplitude = -0.0888
    X: D(   77) --> V(    2) amplitude =  0.0931
    X: D(   78) --> V(    1) amplitude =  1.0476
    Y: D(   78) --> V(    1) amplitude =  0.3852

 Excited state   2: excitation energy (eV) =        2.4317
 Total energy for state   2:                 -1104.06877592 au
    Multiplicity: Triplet
    Trans. Mom.:  0.0000 X   0.0000 Y   0.0000 Z
    Strength   :     0.0000000000
    X: D(   72) --> V(    1) amplitude =  0.0767
    X: D(   73) --> V(    1) amplitude =  0.1945
    X: D(   73) --> V(   11) amplitude =  0.0874
    X: D(   75) --> V(    1) amplitude = -0.1966
    X: D(   75) --> V(    2) amplitude = -0.0716
    X: D(   75) --> V(    5) amplitude =  0.1111
    X: D(   76) --> V(    1) amplitude =  0.2584
    X: D(   77) --> V(    1) amplitude =  0.7767
    Y: D(   77) --> V(    1) amplitude =  0.1001
    X: D(   77) --> V(    2) amplitude =  0.1369
    X: D(   77) --> V(    5) amplitude =  0.1127
    X: D(   78) --> V(    2) amplitude =  0.3973
    Y: D(   78) --> V(    2) amplitude =  0.0738
    X: D(   78) --> V(    5) amplitude =  0.1020
    X: D(   78) --> V(   11) amplitude =  0.0938

 Excited state   3: excitation energy (eV) =        2.5143
 Total energy for state   3:                 -1104.06574239 au
    Multiplicity: Singlet
    Trans. Mom.: -3.2289 X  -2.8340 Y  -0.0400 Z
    Strength   :     1.1370119945
    X: D(   76) --> V(    1) amplitude =  0.0785
    X: D(   77) --> V(    1) amplitude =  0.0966
    X: D(   78) --> V(    1) amplitude =  0.9830
    Y: D(   78) --> V(    1) amplitude = -0.0821

 Excited state   4: excitation energy (eV) =        2.6157
 Total energy for state   4:                 -1104.06201520 au
    Multiplicity: Triplet
    Trans. Mom.:  0.0000 X   0.0000 Y   0.0000 Z
    Strength   :     0.0000000000
    X: D(   75) --> V(    9) amplitude = -0.0811
    X: D(   76) --> V(    1) amplitude =  0.8755
    Y: D(   76) --> V(    1) amplitude =  0.0796
    X: D(   76) --> V(    2) amplitude = -0.1928
    X: D(   76) --> V(    5) amplitude = -0.1217
    X: D(   76) --> V(   11) amplitude = -0.1222
    X: D(   77) --> V(    1) amplitude = -0.2950
    X: D(   77) --> V(    2) amplitude =  0.0907
    X: D(   77) --> V(    9) amplitude =  0.0805
    X: D(   78) --> V(    9) amplitude = -0.1829

 Excited state   5: excitation energy (eV) =        3.3925
 Total energy for state   5:                 -1104.03346583 au
    Multiplicity: Singlet
    Trans. Mom.:  0.3762 X   0.0745 Y  -0.1273 Z
    Strength   :     0.0135688303
    X: D(   76) --> V(    1) amplitude =  0.8450
    X: D(   76) --> V(    2) amplitude = -0.1098
    X: D(   76) --> V(    5) amplitude = -0.0739
    X: D(   77) --> V(    1) amplitude = -0.5053

 Excited state   6: excitation energy (eV) =        3.4918
 Total energy for state   6:                 -1104.02981637 au
    Multiplicity: Triplet
    Trans. Mom.:  0.0000 X   0.0000 Y   0.0000 Z
    Strength   :     0.0000000000
    X: D(   73) --> V(    1) amplitude = -0.1010
    X: D(   73) --> V(   28) amplitude = -0.0862
    X: D(   75) --> V(    1) amplitude =  0.3050
    X: D(   75) --> V(    2) amplitude = -0.2476
    X: D(   75) --> V(    5) amplitude =  0.1471
    X: D(   75) --> V(   11) amplitude =  0.0714
    X: D(   76) --> V(    1) amplitude = -0.0978
    X: D(   76) --> V(    2) amplitude =  0.0721
    X: D(   76) --> V(    5) amplitude =  0.0727
    X: D(   76) --> V(    9) amplitude = -0.1603
    X: D(   77) --> V(    1) amplitude = -0.3397
    X: D(   77) --> V(    2) amplitude =  0.2614
    X: D(   77) --> V(    5) amplitude =  0.1318
    X: D(   77) --> V(   11) amplitude = -0.1341
    X: D(   78) --> V(    2) amplitude =  0.7007

 Excited state   7: excitation energy (eV) =        3.5591
 Total energy for state   7:                 -1104.02734581 au
    Multiplicity: Triplet
    Trans. Mom.:  0.0000 X   0.0000 Y   0.0000 Z
    Strength   :     0.0000000000
    X: D(   73) --> V(    1) amplitude =  0.1855
    X: D(   75) --> V(    1) amplitude = -0.7231
    X: D(   75) --> V(    5) amplitude = -0.1797
    X: D(   76) --> V(    1) amplitude = -0.1144
    X: D(   76) --> V(    5) amplitude = -0.1196
    X: D(   76) --> V(    9) amplitude =  0.0832
    X: D(   77) --> V(    1) amplitude = -0.3076
    X: D(   77) --> V(    2) amplitude = -0.1209
    X: D(   77) --> V(    5) amplitude = -0.2665
    X: D(   77) --> V(    9) amplitude = -0.0776
    X: D(   78) --> V(    2) amplitude =  0.3378
    X: D(   78) --> V(   11) amplitude =  0.1583

 Excited state   8: excitation energy (eV) =        3.6027
 Total energy for state   8:                 -1104.02574400 au
    Multiplicity: Singlet
    Trans. Mom.:  0.1693 X   0.3507 Y   0.0744 Z
    Strength   :     0.0138747318
    X: D(   75) --> V(    1) amplitude =  0.1062
    X: D(   76) --> V(    1) amplitude =  0.4965
    X: D(   77) --> V(    1) amplitude =  0.8316
    X: D(   77) --> V(    2) amplitude =  0.0929
    X: D(   78) --> V(    1) amplitude = -0.1211
    X: D(   78) --> V(    2) amplitude =  0.0956

 Excited state   9: excitation energy (eV) =        4.0590
 Total energy for state   9:                 -1104.00897414 au
    Multiplicity: Triplet
    Trans. Mom.:  0.0000 X   0.0000 Y   0.0000 Z
    Strength   :     0.0000000000
    X: D(   73) --> V(    1) amplitude =  0.0711
    X: D(   74) --> V(    1) amplitude =  0.8862
    X: D(   74) --> V(    2) amplitude = -0.2438
    X: D(   74) --> V(    5) amplitude = -0.1406
    X: D(   74) --> V(   11) amplitude = -0.1952
    X: D(   74) --> V(   17) amplitude = -0.0860
    X: D(   74) --> V(   18) amplitude = -0.0791
    X: D(   75) --> V(    1) amplitude =  0.0749
    X: D(   75) --> V(    2) amplitude =  0.0725
    X: D(   77) --> V(    5) amplitude = -0.1231

 Excited state  10: excitation energy (eV) =        4.0650
 Total energy for state  10:                 -1104.00875395 au
    Multiplicity: Triplet
    Trans. Mom.:  0.0000 X   0.0000 Y   0.0000 Z
    Strength   :     0.0000000000
    X: D(   69) --> V(    1) amplitude =  0.0741
    X: D(   69) --> V(    2) amplitude =  0.0838
    X: D(   72) --> V(    1) amplitude =  0.2455
    X: D(   73) --> V(    1) amplitude =  0.2843
    X: D(   73) --> V(    2) amplitude =  0.1331
    X: D(   73) --> V(    5) amplitude =  0.1274
    X: D(   74) --> V(    1) amplitude = -0.2195
    X: D(   75) --> V(    1) amplitude =  0.2942
    X: D(   75) --> V(    2) amplitude =  0.2868
    X: D(   75) --> V(    5) amplitude = -0.2029
    X: D(   75) --> V(   28) amplitude =  0.0740
    X: D(   76) --> V(    5) amplitude = -0.1576
    X: D(   76) --> V(    9) amplitude = -0.2103
    X: D(   76) --> V(   11) amplitude =  0.0782
    X: D(   77) --> V(    2) amplitude =  0.2519
    X: D(   77) --> V(    5) amplitude = -0.4986
    X: D(   77) --> V(   11) amplitude =  0.0929
    X: D(   78) --> V(    5) amplitude = -0.0939
    X: D(   78) --> V(   11) amplitude =  0.2464

 Excited state  11: excitation energy (eV) =        4.3363
 Total energy for state  11:                 -1103.99878480 au
    Multiplicity: Singlet
    Trans. Mom.: -0.0088 X   0.0031 Y   0.0056 Z
    Strength   :     0.0000126292
    X: D(   74) --> V(    1) amplitude =  0.9248
    X: D(   74) --> V(    2) amplitude = -0.2313
    X: D(   74) --> V(    5) amplitude = -0.1341
    X: D(   74) --> V(   11) amplitude = -0.1781
    X: D(   75) --> V(    1) amplitude = -0.0902

 Excited state  12: excitation energy (eV) =        4.3694
 Total energy for state  12:                 -1103.99756798 au
    Multiplicity: Singlet
    Trans. Mom.:  0.0774 X   0.0840 Y   0.0055 Z
    Strength   :     0.0013994062
    X: D(   74) --> V(    1) amplitude =  0.1054
    X: D(   75) --> V(    1) amplitude =  0.6776
    X: D(   75) --> V(    2) amplitude =  0.0753
    X: D(   75) --> V(    5) amplitude =  0.0942
    X: D(   76) --> V(    2) amplitude =  0.0966
    X: D(   77) --> V(    1) amplitude = -0.1565
    X: D(   77) --> V(    2) amplitude =  0.2537
    X: D(   78) --> V(    2) amplitude =  0.5955
    X: D(   78) --> V(    5) amplitude = -0.1491

 Excited state  13: excitation energy (eV) =        4.4936
 Total energy for state  13:                 -1103.99300111 au
    Multiplicity: Singlet
    Trans. Mom.: -0.0838 X   1.0109 Y   0.4911 Z
    Strength   :     0.1398306059
    X: D(   73) --> V(    1) amplitude =  0.0998
    X: D(   75) --> V(    1) amplitude = -0.5614
    X: D(   75) --> V(    2) amplitude = -0.1392
    X: D(   76) --> V(    2) amplitude = -0.0726
    X: D(   76) --> V(    9) amplitude = -0.0855
    X: D(   77) --> V(    2) amplitude = -0.1574
    X: D(   78) --> V(    2) amplitude =  0.7601
    X: D(   78) --> V(    5) amplitude =  0.0793
    X: D(   78) --> V(    9) amplitude =  0.0795
    X: D(   78) --> V(   11) amplitude =  0.0898

 Excited state  14: excitation energy (eV) =        4.9110
 Total energy for state  14:                 -1103.97766517 au
    Multiplicity: Singlet
    Trans. Mom.: -0.0411 X   0.0400 Y  -0.1071 Z
    Strength   :     0.0017768407
    X: D(   75) --> V(    4) amplitude = -0.0931
    X: D(   77) --> V(    3) amplitude = -0.0900
    X: D(   77) --> V(    4) amplitude =  0.1297
    X: D(   78) --> V(    3) amplitude =  0.8151
    X: D(   78) --> V(    4) amplitude = -0.4605
    X: D(   78) --> V(   10) amplitude = -0.0812
    X: D(   78) --> V(   13) amplitude =  0.0852
    X: D(   78) --> V(   15) amplitude = -0.1291

 ---------------------------------------------------

                    Orbital Energies (a.u.)
 --------------------------------------------------------------

 Alpha MOs
 -- Occupied --
-19.2980 -19.2488 -19.2481 -19.2463 -19.2273 -19.2253 -19.1714 -10.3713
-10.3481 -10.3432 -10.3424 -10.3401 -10.3183 -10.3060 -10.3029 -10.2907
-10.2812 -10.2729 -10.2608 -10.2566 -10.2546 -10.2545  -1.2256  -1.1649
 -1.1639  -1.1594  -1.1477  -1.1365  -1.0796  -0.9735  -0.9477  -0.9202
 -0.8838  -0.8462  -0.8311  -0.8183  -0.7658  -0.7630  -0.7206  -0.7049
 -0.6941  -0.6751  -0.6501  -0.6404  -0.6282  -0.6233  -0.6074  -0.5845
 -0.5753  -0.5660  -0.5575  -0.5463  -0.5308  -0.5193  -0.5178  -0.5125
 -0.5123  -0.4972  -0.4953  -0.4945  -0.4844  -0.4830  -0.4637  -0.4633
 -0.4621  -0.4467  -0.4381  -0.4345  -0.4249  -0.4236  -0.4113  -0.3935
 -0.3631  -0.3346  -0.3199  -0.2911  -0.2885  -0.2389

                    Cartesian Multipole Moments
                  LMN = < X^L Y^M Z^N >

 Total job time:  4482.85s(wall), 61754.57s(cpu)
        *  Thank you very much for using Q-Chem.  Have a nice day.  *
