 Q-Chem 6.2, Q-Chem, Inc., Pleasanton, CA (2024)
 Q-Chem 6.2.0 for Intel X86 EM64T Linux

User input:
--------------------------------------------------------------
$comment
TDDFT calculation of delphinidin Q2 structure
nprocs=16
mem=64gb
$end

$molecule
0 1
C   -4.6721086    0.8949886    1.9035256
C   -4.7047120   -0.2965403    1.1498653
C   -3.6684150   -0.6046353    0.3046520
C   -2.5500312    0.2738711    0.1772038
C   -2.5772723    1.4494221    0.9547156
C   -3.6142642    1.7804142    1.8175491
C   -1.4495118    0.0524543   -0.6482336
C   -0.3593730    0.9463400   -0.7462153
C   -0.4639068    2.1259081    0.0714065
O   -1.5426479    2.3031404    0.8573928
C    0.4872911    3.2119789    0.1754697
C    1.6388029    3.2566104   -0.6339364
C    2.5257505    4.3111902   -0.5205970
C    2.3036531    5.3395590    0.3946944
C    1.1612979    5.2987475    1.2012853
C    0.2637432    4.2562286    1.0963526
O   -5.6932225    1.2103118    2.7486629
H   -5.5508113   -0.9674202    1.2422884
O   -3.6363754   -1.7365597   -0.4470427
H   -3.5898841    2.6925712    2.3959605
H   -1.4043788   -0.8451716   -1.2514077
O    0.6447734    0.7083801   -1.5092409
H    1.8274778    2.4699343   -1.3463990
O    3.6637592    4.4259590   -1.2804919
O    3.1560579    6.3921579    0.5426742
O    0.9192587    6.2969885    2.1113686
H   -0.6038775    4.2602848    1.7384869
H   -6.3714243    0.5194548    2.7313478
H   -4.4314234   -2.2666001   -0.2890222
H    3.9114935    6.2911598   -0.0564476
H    3.7403933    3.6657482   -1.8742793
H    1.6352076    6.9485536    2.0802913
$end

$rem
BASIS  =  def2-ma-TZVP
MEM_STATIC  =  2000
MEM_TOTAL  =  64000
METHOD  =  CAM-B3LYP
SOLVENT_METHOD = pcm
SYMMETRY_IGNORE  =  1
CIS_N_ROOTS = 7
CIS_SINGLETS = true
CIS_TRIPLETS = true
CISTR_PRINT = true
RPA = true
PRINT_ORBITALS = true
SCF_PRINT = 1
SCF_FINAL_PRINT = 2
PRINT_GENERAL_BASIS = true
CISTR_PRINT = true
PRINT_RADII_GYRE = true
MULTIPOLE_ORDER = 5
CIS_AMPL_PRINT = 5
CIS_AMPL_ANAL = true
STATE_ANALYSIS = true
$end

$pcm
Theory   CPCM
Method   SWIG
Solver   Inversion
Radii    Bondi
$end

$solvent
Dielectric         78.39
OpticalDielectric  1.777849
$end

--------------------------------------------------------------

             Standard Nuclear Orientation (Angstroms)
    I     Atom           X                Y                Z
 ----------------------------------------------------------------
    1      C      -4.6721086000     0.8949886000     1.9035256000
    2      C      -4.7047120000    -0.2965403000     1.1498653000
    3      C      -3.6684150000    -0.6046353000     0.3046520000
    4      C      -2.5500312000     0.2738711000     0.1772038000
    5      C      -2.5772723000     1.4494221000     0.9547156000
    6      C      -3.6142642000     1.7804142000     1.8175491000
    7      C      -1.4495118000     0.0524543000    -0.6482336000
    8      C      -0.3593730000     0.9463400000    -0.7462153000
    9      C      -0.4639068000     2.1259081000     0.0714065000
   10      O      -1.5426479000     2.3031404000     0.8573928000
   11      C       0.4872911000     3.2119789000     0.1754697000
   12      C       1.6388029000     3.2566104000    -0.6339364000
   13      C       2.5257505000     4.3111902000    -0.5205970000
   14      C       2.3036531000     5.3395590000     0.3946944000
   15      C       1.1612979000     5.2987475000     1.2012853000
   16      C       0.2637432000     4.2562286000     1.0963526000
   17      O      -5.6932225000     1.2103118000     2.7486629000
   18      H      -5.5508113000    -0.9674202000     1.2422884000
   19      O      -3.6363754000    -1.7365597000    -0.4470427000
   20      H      -3.5898841000     2.6925712000     2.3959605000
   21      H      -1.4043788000    -0.8451716000    -1.2514077000
   22      O       0.6447734000     0.7083801000    -1.5092409000
   23      H       1.8274778000     2.4699343000    -1.3463990000
   24      O       3.6637592000     4.4259590000    -1.2804919000
   25      O       3.1560579000     6.3921579000     0.5426742000
   26      O       0.9192587000     6.2969885000     2.1113686000
   27      H      -0.6038775000     4.2602848000     1.7384869000
   28      H      -6.3714243000     0.5194548000     2.7313478000
   29      H      -4.4314234000    -2.2666001000    -0.2890222000
   30      H       3.9114935000     6.2911598000    -0.0564476000
   31      H       3.7403933000     3.6657482000    -1.8742793000
   32      H       1.6352076000     6.9485536000     2.0802913000
 ----------------------------------------------------------------

   16   -1104.1489461176      6.15e-09  Convergence criterion met
 Total energy = -1104.14894612

             TDDFT Excitation Energies
 ---------------------------------------------------

 Excited state   1: excitation energy (eV) =        0.3701
 Total energy for state   1:                 -1104.13534433 au
    Multiplicity: Triplet
    Trans. Mom.:  0.0000 X   0.0000 Y   0.0000 Z
    Strength   :     0.0000000000
    X: D(   65) --> V(    1) amplitude = -0.0963
    Y: D(   65) --> V(    1) amplitude = -0.0822
    X: D(   67) --> V(    1) amplitude =  0.1273
    Y: D(   67) --> V(    1) amplitude =  0.1077
    X: D(   73) --> V(    1) amplitude = -0.1209
    Y: D(   73) --> V(    1) amplitude = -0.0866
    X: D(   73) --> V(    2) amplitude =  0.0730
    X: D(   73) --> V(   10) amplitude = -0.0954
    Y: D(   73) --> V(   10) amplitude = -0.0793
    X: D(   74) --> V(    1) amplitude = -0.1761
    Y: D(   74) --> V(    1) amplitude = -0.1295
    X: D(   74) --> V(    2) amplitude = -0.0803
    Y: D(   74) --> V(    2) amplitude = -0.0753
    X: D(   74) --> V(   10) amplitude = -0.0778
    X: D(   76) --> V(    1) amplitude =  0.0773
    X: D(   76) --> V(    5) amplitude = -0.1010
    Y: D(   76) --> V(    5) amplitude = -0.0865
    X: D(   77) --> V(    1) amplitude =  0.1059
    X: D(   77) --> V(    7) amplitude =  0.0928
    Y: D(   77) --> V(    7) amplitude =  0.0834
    X: D(   78) --> V(    1) amplitude =  1.2865
    Y: D(   78) --> V(    1) amplitude =  0.8553
    X: D(   78) --> V(   10) amplitude =  0.0909

 Excited state   2: excitation energy (eV) =        2.2923
 Total energy for state   2:                 -1104.06470679 au
    Multiplicity: Singlet
    Trans. Mom.: -2.2534 X  -2.0618 Y   0.0806 Z
    Strength   :     0.5242879132
    X: D(   77) --> V(    1) amplitude =  0.0801
    X: D(   78) --> V(    1) amplitude =  0.9932
    Y: D(   78) --> V(    1) amplitude = -0.0973

 Excited state   3: excitation energy (eV) =        2.6752
 Total energy for state   3:                 -1104.05063417 au
    Multiplicity: Triplet
    Trans. Mom.:  0.0000 X   0.0000 Y   0.0000 Z
    Strength   :     0.0000000000
    X: D(   65) --> V(    1) amplitude = -0.0721
    X: D(   72) --> V(    1) amplitude = -0.1339
    X: D(   74) --> V(    5) amplitude = -0.1642
    X: D(   76) --> V(    1) amplitude =  0.5429
    X: D(   76) --> V(    7) amplitude =  0.1135
    X: D(   76) --> V(   10) amplitude = -0.1099
    X: D(   77) --> V(    1) amplitude =  0.6204
    Y: D(   77) --> V(    1) amplitude =  0.0710
    X: D(   77) --> V(    7) amplitude = -0.1185
    X: D(   77) --> V(   10) amplitude = -0.0954
    X: D(   78) --> V(    1) amplitude = -0.0918
    X: D(   78) --> V(    2) amplitude =  0.3582
    Y: D(   78) --> V(    2) amplitude =  0.0761
    X: D(   78) --> V(    5) amplitude = -0.2035
    X: D(   78) --> V(   10) amplitude =  0.1047

 Excited state   4: excitation energy (eV) =        3.0473
 Total energy for state   4:                 -1104.03695988 au
    Multiplicity: Triplet
    Trans. Mom.:  0.0000 X   0.0000 Y   0.0000 Z
    Strength   :     0.0000000000
    X: D(   75) --> V(    1) amplitude =  0.4884
    X: D(   75) --> V(   10) amplitude =  0.0766
    X: D(   76) --> V(    1) amplitude = -0.6065
    X: D(   76) --> V(    2) amplitude =  0.1066
    X: D(   76) --> V(    5) amplitude = -0.1032
    X: D(   76) --> V(   10) amplitude =  0.1000
    X: D(   77) --> V(    1) amplitude =  0.5518
    X: D(   77) --> V(    2) amplitude = -0.0987
    X: D(   77) --> V(    5) amplitude =  0.1188
    X: D(   77) --> V(   10) amplitude = -0.0822

 Excited state   5: excitation energy (eV) =        3.0970
 Total energy for state   5:                 -1104.03513461 au
    Multiplicity: Triplet
    Trans. Mom.:  0.0000 X   0.0000 Y   0.0000 Z
    Strength   :     0.0000000000
    X: D(   75) --> V(    1) amplitude =  0.8514
    X: D(   75) --> V(   10) amplitude =  0.0949
    X: D(   76) --> V(    1) amplitude =  0.3410
    X: D(   76) --> V(    2) amplitude = -0.0711
    X: D(   76) --> V(   10) amplitude = -0.0732
    X: D(   77) --> V(    1) amplitude = -0.3109
    X: D(   77) --> V(    2) amplitude =  0.0708
    X: D(   77) --> V(    5) amplitude = -0.0821

 Excited state   6: excitation energy (eV) =        3.2368
 Total energy for state   6:                 -1104.02999614 au
    Multiplicity: Singlet
    Trans. Mom.:  0.0142 X  -0.0145 Y  -0.0154 Z
    Strength   :     0.0000515581
    X: D(   75) --> V(    1) amplitude =  0.9778
    X: D(   75) --> V(   10) amplitude =  0.1107
    X: D(   76) --> V(    1) amplitude = -0.0848
    X: D(   77) --> V(    1) amplitude =  0.1080

 Excited state   7: excitation energy (eV) =        3.2983
 Total energy for state   7:                 -1104.02773486 au
    Multiplicity: Triplet
    Trans. Mom.:  0.0000 X   0.0000 Y   0.0000 Z
    Strength   :     0.0000000000
    X: D(   71) --> V(    1) amplitude = -0.0720
    X: D(   73) --> V(    1) amplitude =  0.2202
    X: D(   73) --> V(    2) amplitude =  0.0800
    X: D(   74) --> V(    1) amplitude =  0.7529
    X: D(   74) --> V(    2) amplitude = -0.0958
    X: D(   74) --> V(    5) amplitude = -0.1561
    X: D(   76) --> V(    1) amplitude = -0.0710
    X: D(   76) --> V(    2) amplitude =  0.0864
    X: D(   76) --> V(    5) amplitude = -0.2674
    X: D(   77) --> V(    2) amplitude =  0.0878
    X: D(   77) --> V(    5) amplitude = -0.1919
    X: D(   77) --> V(    7) amplitude =  0.1595
    X: D(   78) --> V(    1) amplitude =  0.0921
    X: D(   78) --> V(    2) amplitude =  0.1355
    X: D(   78) --> V(    5) amplitude = -0.1778
    X: D(   78) --> V(   10) amplitude = -0.2622
    X: D(   78) --> V(   13) amplitude =  0.1074
    X: D(   78) --> V(   17) amplitude =  0.0855

 Excited state   8: excitation energy (eV) =        3.4488
 Total energy for state   8:                 -1104.02220676 au
    Multiplicity: Triplet
    Trans. Mom.:  0.0000 X   0.0000 Y   0.0000 Z
    Strength   :     0.0000000000
    X: D(   73) --> V(   10) amplitude = -0.0757
    X: D(   73) --> V(   32) amplitude =  0.0760
    X: D(   74) --> V(    1) amplitude = -0.1683
    X: D(   74) --> V(    2) amplitude = -0.1315
    X: D(   74) --> V(    5) amplitude =  0.0794
    X: D(   74) --> V(   32) amplitude =  0.0718
    X: D(   76) --> V(    1) amplitude = -0.2532
    X: D(   76) --> V(    2) amplitude =  0.0864
    X: D(   77) --> V(    1) amplitude = -0.2593
    X: D(   77) --> V(    2) amplitude =  0.0925
    X: D(   77) --> V(    7) amplitude = -0.0717
    X: D(   78) --> V(    2) amplitude =  0.8593
    Y: D(   78) --> V(    2) amplitude =  0.0799
    X: D(   78) --> V(   32) amplitude = -0.1273

 Excited state   9: excitation energy (eV) =        3.6500
 Total energy for state   9:                 -1104.01481026 au
    Multiplicity: Singlet
    Trans. Mom.:  0.5772 X   0.6859 Y   0.1006 Z
    Strength   :     0.0727632445
    X: D(   74) --> V(    1) amplitude =  0.2626
    X: D(   76) --> V(    1) amplitude =  0.8908
    X: D(   77) --> V(    1) amplitude =  0.2841
    X: D(   78) --> V(    2) amplitude =  0.1513

 Excited state  10: excitation energy (eV) =        3.6832
 Total energy for state  10:                 -1104.01359099 au
    Multiplicity: Singlet
    Trans. Mom.:  0.9593 X   0.5231 Y  -0.3005 Z
    Strength   :     0.1158878198
    X: D(   74) --> V(    1) amplitude =  0.1392
    X: D(   75) --> V(    1) amplitude = -0.1268
    X: D(   76) --> V(    1) amplitude = -0.3274
    X: D(   76) --> V(    2) amplitude =  0.0782
    X: D(   76) --> V(    7) amplitude =  0.0906
    X: D(   77) --> V(    1) amplitude =  0.8909
    X: D(   77) --> V(    5) amplitude =  0.0871
    X: D(   78) --> V(    2) amplitude =  0.0889
    X: D(   78) --> V(    7) amplitude = -0.1208

 Excited state  11: excitation energy (eV) =        3.7042
 Total energy for state  11:                 -1104.01281876 au
    Multiplicity: Triplet
    Trans. Mom.:  0.0000 X   0.0000 Y   0.0000 Z
    Strength   :     0.0000000000
    X: D(   71) --> V(    1) amplitude = -0.2150
    X: D(   72) --> V(    1) amplitude = -0.1313
    X: D(   73) --> V(    1) amplitude = -0.8195
    X: D(   73) --> V(    2) amplitude = -0.1046
    X: D(   73) --> V(    5) amplitude =  0.1405
    X: D(   74) --> V(    1) amplitude =  0.2966
    X: D(   76) --> V(   10) amplitude =  0.0758
    X: D(   77) --> V(    2) amplitude =  0.0927
    X: D(   77) --> V(   10) amplitude =  0.0873
    X: D(   78) --> V(    5) amplitude =  0.2324
    X: D(   78) --> V(    7) amplitude = -0.0725
    X: D(   78) --> V(   10) amplitude =  0.0882
    X: D(   78) --> V(   32) amplitude = -0.1059

 Excited state  12: excitation energy (eV) =        4.2433
 Total energy for state  12:                 -1103.99300732 au
    Multiplicity: Singlet
    Trans. Mom.: -0.8917 X  -0.7557 Y   0.0610 Z
    Strength   :     0.1424103503
    X: D(   72) --> V(    1) amplitude =  0.0987
    X: D(   73) --> V(    1) amplitude =  0.3165
    X: D(   74) --> V(    1) amplitude =  0.8453
    X: D(   76) --> V(    1) amplitude = -0.2096
    X: D(   76) --> V(    2) amplitude =  0.0833
    X: D(   77) --> V(    1) amplitude = -0.2115
    X: D(   77) --> V(    2) amplitude =  0.0919
    X: D(   78) --> V(    2) amplitude =  0.2040

 Excited state  13: excitation energy (eV) =        4.4759
 Total energy for state  13:                 -1103.98445856 au
    Multiplicity: Singlet
    Trans. Mom.: -0.4777 X   0.2854 Y   0.4708 Z
    Strength   :     0.0582618658
    X: D(   73) --> V(    1) amplitude = -0.5512
    X: D(   73) --> V(    5) amplitude =  0.0769
    X: D(   74) --> V(   10) amplitude = -0.0743
    X: D(   76) --> V(    1) amplitude = -0.0984
    X: D(   76) --> V(    2) amplitude =  0.1051
    X: D(   77) --> V(    1) amplitude = -0.1314
    X: D(   77) --> V(    2) amplitude =  0.1333
    X: D(   78) --> V(    2) amplitude =  0.7429
    X: D(   78) --> V(    5) amplitude =  0.1913

 Excited state  14: excitation energy (eV) =        4.9309
 Total energy for state  14:                 -1103.96773843 au
    Multiplicity: Singlet
    Trans. Mom.: -1.4324 X   0.5628 Y   1.2374 Z
    Strength   :     0.4711156675
    X: D(   72) --> V(    1) amplitude =  0.0798
    X: D(   73) --> V(    1) amplitude =  0.7091
    X: D(   74) --> V(    1) amplitude = -0.3694
    X: D(   74) --> V(    2) amplitude = -0.0877
    X: D(   77) --> V(    7) amplitude = -0.0864
    X: D(   78) --> V(    2) amplitude =  0.5415
    X: D(   78) --> V(    7) amplitude =  0.0790

 ---------------------------------------------------

                    Orbital Energies (a.u.)
 --------------------------------------------------------------

 Alpha MOs
 -- Occupied --
-19.3052 -19.2491 -19.2486 -19.2462 -19.2423 -19.2377 -19.1361 -10.3518
-10.3460 -10.3418 -10.3395 -10.3246 -10.3222 -10.3221 -10.3160 -10.2826
-10.2786 -10.2768 -10.2620 -10.2557 -10.2551 -10.2543  -1.2305  -1.1753
 -1.1638  -1.1592  -1.1506  -1.1365  -1.0646  -0.9717  -0.9522  -0.9022
 -0.8868  -0.8445  -0.8353  -0.8213  -0.7698  -0.7490  -0.7254  -0.7122
 -0.7102  -0.6791  -0.6577  -0.6372  -0.6299  -0.6012  -0.5934  -0.5909
 -0.5855  -0.5742  -0.5551  -0.5489  -0.5332  -0.5286  -0.5145  -0.5109
 -0.5020  -0.5004  -0.4909  -0.4852  -0.4836  -0.4753  -0.4613  -0.4594
 -0.4540  -0.4472  -0.4457  -0.4451  -0.4353  -0.4293  -0.4197  -0.3918
 -0.3372  -0.3195  -0.3061  -0.2927  -0.2921  -0.2394

                    Cartesian Multipole Moments
                  LMN = < X^L Y^M Z^N >

 Total job time:  7658.83s(wall), 110076.19s(cpu)
        *  Thank you very much for using Q-Chem.  Have a nice day.  *
