 Q-Chem 6.2, Q-Chem, Inc., Pleasanton, CA (2024)
 Q-Chem 6.2.0 for Intel X86 EM64T Linux

User input:
--------------------------------------------------------------
$comment
TDDFT calculation of malvidin H structure
nprocs=16
mem=64gb
$end

$molecule
1 1
C   -2.7705976   -1.4750130   -0.4708814
C   -3.9032473   -1.2795039    0.3416363
C   -4.0284696   -0.1289849    1.0827225
C   -3.0135430    0.8683941    1.0300200
C   -1.9027972    0.6165246    0.1988015
C   -1.7550480   -0.5317103   -0.5536352
C   -3.0345730    2.0695742    1.7401619
C   -2.0073246    2.9890146    1.6355996
C   -0.9132105    2.7141170    0.7915986
O   -0.9258290    1.5480415    0.1272194
C    0.2627856    3.5092794    0.5223853
C    0.4111565    4.8169107    1.0246996
C    1.5523057    5.5382078    0.7254358
C    2.5643624    4.9808733   -0.0678456
C    2.4211470    3.6782202   -0.5712244
C    1.2815503    2.9533119   -0.2797754
O   -2.6322201   -2.6034114   -1.2058995
H   -4.6747811   -2.0397445    0.3803500
O   -5.0874545    0.1262131    1.8854708
H   -0.8882091   -0.6873229   -1.1789064
H   -3.8674576    2.2955123    2.3946218
O   -2.0231279    4.1502820    2.3379461
H   -0.3577297    5.2609183    1.6287038
O    1.8161141    6.8093276    1.1421430
O    3.6862054    5.6770159   -0.3619678
H    1.1725556    1.9537763   -0.6652871
H   -3.3962052   -3.1861648   -1.0815567
H   -5.7155147   -0.6110589    1.8610920
H   -2.8238124    4.1954880    2.8816343
H    3.6309133    6.5505221    0.0589613
C    0.8360229    7.4871131    1.9368109
H    1.2540379    8.4683609    2.1453252
H    0.6613343    6.9551577    2.8733993
H   -0.1000149    7.5950755    1.3861335
O    3.4578760    3.2310969   -1.3309070
C    3.3739804    1.9104504   -1.8784144
H    4.2928548    1.7672972   -2.4409924
H    2.5161643    1.8193873   -2.5475119
H    3.3086905    1.1629004   -1.0856272
$end

$rem
BASIS  =  def2-ma-TZVP
MEM_STATIC  =  2000
MEM_TOTAL  =  64000
METHOD  =  CAM-B3LYP
SOLVENT_METHOD = pcm
SYMMETRY_IGNORE  =  1
CIS_N_ROOTS = 7
CIS_SINGLETS = true
CIS_TRIPLETS = true
CISTR_PRINT = true
RPA = true
PRINT_ORBITALS = true
SCF_PRINT = 1
SCF_FINAL_PRINT = 2
PRINT_GENERAL_BASIS = true
CISTR_PRINT = true
PRINT_RADII_GYRE = true
MULTIPOLE_ORDER = 5
CIS_AMPL_PRINT = 5
CIS_AMPL_ANAL = true
STATE_ANALYSIS = true
$end

$pcm
Theory   CPCM
Method   SWIG
Solver   Inversion
Radii    Bondi
$end

$solvent
Dielectric         78.39
OpticalDielectric  1.777849
$end

--------------------------------------------------------------

             Standard Nuclear Orientation (Angstroms)
    I     Atom           X                Y                Z
 ----------------------------------------------------------------
    1      C      -2.7705976000    -1.4750130000    -0.4708814000
    2      C      -3.9032473000    -1.2795039000     0.3416363000
    3      C      -4.0284696000    -0.1289849000     1.0827225000
    4      C      -3.0135430000     0.8683941000     1.0300200000
    5      C      -1.9027972000     0.6165246000     0.1988015000
    6      C      -1.7550480000    -0.5317103000    -0.5536352000
    7      C      -3.0345730000     2.0695742000     1.7401619000
    8      C      -2.0073246000     2.9890146000     1.6355996000
    9      C      -0.9132105000     2.7141170000     0.7915986000
   10      O      -0.9258290000     1.5480415000     0.1272194000
   11      C       0.2627856000     3.5092794000     0.5223853000
   12      C       0.4111565000     4.8169107000     1.0246996000
   13      C       1.5523057000     5.5382078000     0.7254358000
   14      C       2.5643624000     4.9808733000    -0.0678456000
   15      C       2.4211470000     3.6782202000    -0.5712244000
   16      C       1.2815503000     2.9533119000    -0.2797754000
   17      O      -2.6322201000    -2.6034114000    -1.2058995000
   18      H      -4.6747811000    -2.0397445000     0.3803500000
   19      O      -5.0874545000     0.1262131000     1.8854708000
   20      H      -0.8882091000    -0.6873229000    -1.1789064000
   21      H      -3.8674576000     2.2955123000     2.3946218000
   22      O      -2.0231279000     4.1502820000     2.3379461000
   23      H      -0.3577297000     5.2609183000     1.6287038000
   24      O       1.8161141000     6.8093276000     1.1421430000
   25      O       3.6862054000     5.6770159000    -0.3619678000
   26      H       1.1725556000     1.9537763000    -0.6652871000
   27      H      -3.3962052000    -3.1861648000    -1.0815567000
   28      H      -5.7155147000    -0.6110589000     1.8610920000
   29      H      -2.8238124000     4.1954880000     2.8816343000
   30      H       3.6309133000     6.5505221000     0.0589613000
   31      C       0.8360229000     7.4871131000     1.9368109000
   32      H       1.2540379000     8.4683609000     2.1453252000
   33      H       0.6613343000     6.9551577000     2.8733993000
   34      H      -0.1000149000     7.5950755000     1.3861335000
   35      O       3.4578760000     3.2310969000    -1.3309070000
   36      C       3.3739804000     1.9104504000    -1.8784144000
   37      H       4.2928548000     1.7672972000    -2.4409924000
   38      H       2.5161643000     1.8193873000    -2.5475119000
   39      H       3.3086905000     1.1629004000    -1.0856272000
 ----------------------------------------------------------------

   15   -1183.1772649381      7.44e-09  Convergence criterion met
 Total energy = -1183.17726494

             TDDFT Excitation Energies
 ---------------------------------------------------

 Excited state   1: excitation energy (eV) =        1.5349
 Total energy for state   1:                 -1183.12085901 au
    Multiplicity: Triplet
    Trans. Mom.:  0.0000 X   0.0000 Y   0.0000 Z
    Strength   :     0.0000000000
    X: D(   82) --> V(    1) amplitude =  0.1705
    X: D(   83) --> V(    1) amplitude = -0.1330
    X: D(   84) --> V(    1) amplitude =  0.2267
    X: D(   84) --> V(    2) amplitude = -0.0907
    X: D(   84) --> V(    3) amplitude =  0.0933
    X: D(   86) --> V(    1) amplitude =  0.9487
    Y: D(   86) --> V(    1) amplitude =  0.1996

 Excited state   2: excitation energy (eV) =        2.4676
 Total energy for state   2:                 -1183.08658247 au
    Multiplicity: Triplet
    Trans. Mom.:  0.0000 X   0.0000 Y   0.0000 Z
    Strength   :     0.0000000000
    X: D(   81) --> V(    1) amplitude = -0.1495
    X: D(   83) --> V(    3) amplitude =  0.1285
    X: D(   84) --> V(    1) amplitude =  0.8435
    Y: D(   84) --> V(    1) amplitude =  0.0928
    X: D(   84) --> V(   10) amplitude = -0.0840
    X: D(   85) --> V(    1) amplitude =  0.1835
    X: D(   86) --> V(    1) amplitude = -0.1883
    X: D(   86) --> V(    2) amplitude = -0.3441
    Y: D(   86) --> V(    2) amplitude = -0.0757
    X: D(   86) --> V(    3) amplitude =  0.1472
    X: D(   86) --> V(   10) amplitude =  0.1152

 Excited state   3: excitation energy (eV) =        2.6846
 Total energy for state   3:                 -1183.07860926 au
    Multiplicity: Singlet
    Trans. Mom.: -2.5839 X  -2.3464 Y   0.2514 Z
    Strength   :     0.8053653373
    X: D(   84) --> V(    1) amplitude =  0.2590
    X: D(   86) --> V(    1) amplitude =  0.9548

 Excited state   4: excitation energy (eV) =        2.7790
 Total energy for state   4:                 -1183.07513946 au
    Multiplicity: Triplet
    Trans. Mom.:  0.0000 X   0.0000 Y   0.0000 Z
    Strength   :     0.0000000000
    X: D(   77) --> V(    1) amplitude = -0.0821
    X: D(   84) --> V(    1) amplitude = -0.1931
    X: D(   85) --> V(    1) amplitude =  0.9121
    X: D(   85) --> V(    2) amplitude =  0.2494
    X: D(   85) --> V(    3) amplitude = -0.1521
    X: D(   85) --> V(   10) amplitude = -0.1394

 Excited state   5: excitation energy (eV) =        3.2688
 Total energy for state   5:                 -1183.05713773 au
    Multiplicity: Triplet
    Trans. Mom.:  0.0000 X   0.0000 Y   0.0000 Z
    Strength   :     0.0000000000
    X: D(   75) --> V(    1) amplitude =  0.1020
    X: D(   79) --> V(    1) amplitude = -0.1397
    X: D(   81) --> V(    1) amplitude =  0.0824
    X: D(   83) --> V(    1) amplitude =  0.8731
    Y: D(   83) --> V(    1) amplitude =  0.0757
    X: D(   83) --> V(    3) amplitude =  0.1535
    X: D(   84) --> V(    2) amplitude = -0.2193
    X: D(   84) --> V(    3) amplitude =  0.2128
    X: D(   86) --> V(   10) amplitude = -0.1718

 Excited state   6: excitation energy (eV) =        3.3755
 Total energy for state   6:                 -1183.05321733 au
    Multiplicity: Singlet
    Trans. Mom.:  0.5189 X   0.1673 Y  -0.1876 Z
    Strength   :     0.0274974812
    X: D(   83) --> V(    1) amplitude =  0.1679
    X: D(   84) --> V(    1) amplitude =  0.5177
    X: D(   85) --> V(    1) amplitude =  0.8046
    X: D(   85) --> V(    2) amplitude =  0.0795
    X: D(   86) --> V(    1) amplitude = -0.1402
    X: D(   86) --> V(    2) amplitude = -0.0821

 Excited state   7: excitation energy (eV) =        3.4309
 Total energy for state   7:                 -1183.05118252 au
    Multiplicity: Singlet
    Trans. Mom.:  0.5636 X   0.8222 Y   0.0868 Z
    Strength   :     0.0841651072
    X: D(   83) --> V(    1) amplitude =  0.1755
    X: D(   84) --> V(    1) amplitude =  0.7639
    X: D(   85) --> V(    1) amplitude = -0.5567
    X: D(   85) --> V(    2) amplitude = -0.1029
    X: D(   86) --> V(    1) amplitude = -0.1913
    X: D(   86) --> V(    7) amplitude =  0.0778

 Excited state   8: excitation energy (eV) =        3.6408
 Total energy for state   8:                 -1183.04346639 au
    Multiplicity: Triplet
    Trans. Mom.:  0.0000 X   0.0000 Y   0.0000 Z
    Strength   :     0.0000000000
    X: D(   82) --> V(    2) amplitude =  0.0871
    X: D(   82) --> V(   10) amplitude = -0.0876
    X: D(   82) --> V(   27) amplitude = -0.0763
    X: D(   83) --> V(    2) amplitude = -0.2576
    X: D(   83) --> V(   10) amplitude = -0.0752
    X: D(   84) --> V(    1) amplitude =  0.3397
    X: D(   84) --> V(    2) amplitude =  0.2683
    X: D(   84) --> V(    7) amplitude = -0.0895
    X: D(   84) --> V(   10) amplitude =  0.1249
    X: D(   85) --> V(    1) amplitude =  0.0737
    X: D(   85) --> V(    7) amplitude =  0.1758
    X: D(   86) --> V(    1) amplitude = -0.1056
    X: D(   86) --> V(    2) amplitude =  0.7755
    Y: D(   86) --> V(    2) amplitude =  0.0824

 Excited state   9: excitation energy (eV) =        3.9282
 Total energy for state   9:                 -1183.03290732 au
    Multiplicity: Triplet
    Trans. Mom.:  0.0000 X   0.0000 Y   0.0000 Z
    Strength   :     0.0000000000
    X: D(   65) --> V(    1) amplitude = -0.1241
    X: D(   79) --> V(    1) amplitude = -0.2067
    X: D(   79) --> V(   10) amplitude = -0.0731
    X: D(   81) --> V(    1) amplitude = -0.3499
    X: D(   82) --> V(    1) amplitude =  0.7109
    X: D(   82) --> V(    2) amplitude = -0.1669
    X: D(   82) --> V(    3) amplitude =  0.0770
    X: D(   83) --> V(    1) amplitude =  0.1864
    X: D(   83) --> V(    2) amplitude = -0.1513
    X: D(   84) --> V(    1) amplitude = -0.0817
    X: D(   84) --> V(    2) amplitude =  0.0840
    X: D(   84) --> V(    3) amplitude = -0.2579
    X: D(   84) --> V(   10) amplitude =  0.1248
    X: D(   85) --> V(    7) amplitude = -0.0860
    X: D(   86) --> V(    3) amplitude = -0.1138
    X: D(   86) --> V(   10) amplitude =  0.2419

 Excited state  10: excitation energy (eV) =        4.1033
 Total energy for state  10:                 -1183.02647204 au
    Multiplicity: Triplet
    Trans. Mom.:  0.0000 X   0.0000 Y   0.0000 Z
    Strength   :     0.0000000000
    X: D(   79) --> V(    1) amplitude =  0.1074
    X: D(   82) --> V(    1) amplitude =  0.1704
    X: D(   82) --> V(    2) amplitude = -0.0859
    X: D(   82) --> V(    3) amplitude = -0.0786
    X: D(   83) --> V(    2) amplitude =  0.1912
    X: D(   83) --> V(    3) amplitude =  0.3088
    X: D(   84) --> V(    1) amplitude = -0.1291
    X: D(   84) --> V(    2) amplitude =  0.5494
    X: D(   84) --> V(    3) amplitude =  0.5032
    X: D(   84) --> V(   10) amplitude = -0.0768
    X: D(   85) --> V(    7) amplitude = -0.2724
    X: D(   85) --> V(   10) amplitude = -0.0719
    X: D(   86) --> V(    3) amplitude =  0.2678
    X: D(   86) --> V(    7) amplitude = -0.0857
    X: D(   86) --> V(   10) amplitude =  0.0960

 Excited state  11: excitation energy (eV) =        4.2700
 Total energy for state  11:                 -1183.02034637 au
    Multiplicity: Singlet
    Trans. Mom.: -0.3363 X   0.2987 Y   0.3756 Z
    Strength   :     0.0359222432
    X: D(   83) --> V(    1) amplitude =  0.8854
    X: D(   83) --> V(    2) amplitude = -0.0888
    X: D(   84) --> V(    1) amplitude = -0.2444
    X: D(   84) --> V(    2) amplitude = -0.2802
    X: D(   86) --> V(    1) amplitude =  0.0966
    X: D(   86) --> V(    2) amplitude = -0.1178
    X: D(   86) --> V(    3) amplitude = -0.1033

 Excited state  12: excitation energy (eV) =        4.8771
 Total energy for state  12:                 -1182.99803493 au
    Multiplicity: Singlet
    Trans. Mom.: -0.3345 X   0.7547 Y   0.6647 Z
    Strength   :     0.1342086701
    X: D(   82) --> V(    1) amplitude = -0.2869
    X: D(   83) --> V(    1) amplitude =  0.2023
    X: D(   83) --> V(    3) amplitude = -0.1173
    X: D(   84) --> V(    2) amplitude =  0.2371
    X: D(   84) --> V(    7) amplitude = -0.0903
    X: D(   84) --> V(   10) amplitude =  0.1072
    X: D(   86) --> V(    2) amplitude =  0.8518
    X: D(   86) --> V(    3) amplitude =  0.1373

 Excited state  13: excitation energy (eV) =        5.2163
 Total energy for state  13:                 -1182.98556962 au
    Multiplicity: Singlet
    Trans. Mom.: -0.7343 X  -0.3239 Y   0.2919 Z
    Strength   :     0.0931987386
    X: D(   81) --> V(    1) amplitude = -0.1199
    X: D(   82) --> V(    1) amplitude =  0.5900
    X: D(   83) --> V(    1) amplitude = -0.0939
    X: D(   83) --> V(    2) amplitude = -0.1895
    X: D(   83) --> V(   10) amplitude = -0.1125
    X: D(   84) --> V(    2) amplitude = -0.4276
    X: D(   84) --> V(    3) amplitude = -0.2050
    X: D(   85) --> V(    2) amplitude = -0.0947
    X: D(   86) --> V(    2) amplitude =  0.4152
    X: D(   86) --> V(    3) amplitude = -0.3469
    X: D(   86) --> V(    7) amplitude =  0.1388

 Excited state  14: excitation energy (eV) =        5.3526
 Total energy for state  14:                 -1182.98056000 au
    Multiplicity: Singlet
    Trans. Mom.:  0.1520 X   1.3936 Y   0.7183 Z
    Strength   :     0.3253762167
    X: D(   79) --> V(    1) amplitude = -0.0788
    X: D(   81) --> V(    1) amplitude = -0.2481
    X: D(   82) --> V(    1) amplitude =  0.6726
    X: D(   82) --> V(    2) amplitude = -0.0887
    X: D(   83) --> V(    1) amplitude =  0.2811
    X: D(   83) --> V(    2) amplitude =  0.1124
    X: D(   83) --> V(    3) amplitude = -0.0721
    X: D(   83) --> V(   10) amplitude =  0.1083
    X: D(   84) --> V(    2) amplitude =  0.4780
    X: D(   84) --> V(    3) amplitude =  0.0971
    X: D(   85) --> V(    2) amplitude =  0.1244
    X: D(   86) --> V(    3) amplitude =  0.2896

 ---------------------------------------------------

                    Orbital Energies (a.u.)
 --------------------------------------------------------------

 Alpha MOs
 -- Occupied --
-19.3222 -19.2581 -19.2579 -19.2565 -19.2511 -19.2480 -19.2426 -10.3892
-10.3656 -10.3575 -10.3562 -10.3550 -10.3354 -10.3285 -10.3283 -10.3149
-10.2999 -10.2977 -10.2951 -10.2918 -10.2720 -10.2693 -10.2680 -10.2665
 -1.2508  -1.1828  -1.1765  -1.1754  -1.1716  -1.1606  -1.1456  -0.9889
 -0.9679  -0.9398  -0.9047  -0.8632  -0.8561  -0.8500  -0.8054  -0.7970
 -0.7793  -0.7719  -0.7337  -0.7233  -0.7051  -0.6829  -0.6626  -0.6501
 -0.6454  -0.6347  -0.6158  -0.6038  -0.5950  -0.5927  -0.5824  -0.5745
 -0.5614  -0.5582  -0.5516  -0.5457  -0.5362  -0.5279  -0.5254  -0.5102
 -0.5072  -0.5062  -0.5018  -0.4951  -0.4936  -0.4858  -0.4792  -0.4700
 -0.4570  -0.4484  -0.4476  -0.4344  -0.4255  -0.4221  -0.4211  -0.4139
 -0.3971  -0.3739  -0.3323  -0.3030  -0.3003  -0.2714

                    Cartesian Multipole Moments
                  LMN = < X^L Y^M Z^N >

 Total job time:  5535.43s(wall), 75358.87s(cpu)
        *  Thank you very much for using Q-Chem.  Have a nice day.  *
