 Q-Chem 6.2, Q-Chem, Inc., Pleasanton, CA (2024)
 Q-Chem 6.2.0 for Intel X86 EM64T Linux

User input:
--------------------------------------------------------------
$comment
TDDFT calculation of malvidin Q3 structure
nprocs=16
mem=64gb
$end

$molecule
0 1
C   -2.7420756   -1.5008458   -0.4234649
C   -3.8872285   -1.2873056    0.3704726
C   -4.0237674   -0.1213180    1.0822137
C   -3.0144567    0.8858121    1.0266544
C   -1.8931485    0.6116034    0.2188700
C   -1.7327871   -0.5602102   -0.5090735
C   -3.0584334    2.1046823    1.7028730
C   -2.0395310    3.0791066    1.6186672
C   -0.9246741    2.7249770    0.7773198
O   -0.9199571    1.5367825    0.1432582
C    0.2618297    3.5044803    0.5016619
C    0.4216910    4.8002110    1.0287987
C    1.5679856    5.5216378    0.7416512
C    2.5738607    4.9778757   -0.0640805
C    2.4201378    3.6877605   -0.5928205
C    1.2771933    2.9609410   -0.3140576
O   -2.5964962   -2.6544062   -1.1348158
H   -4.6589017   -2.0474311    0.4166632
O   -5.1023948    0.1449337    1.8661166
H   -0.8545799   -0.7246219   -1.1166296
H   -3.9090199    2.3375378    2.3304236
O   -2.1124401    4.1933818    2.2523996
H   -0.3551509    5.2116426    1.6481090
O    1.8369211    6.7856078    1.1879285
O    3.7051230    5.6776118   -0.3484000
H    1.1622378    1.9707972   -0.7220226
H   -3.3655352   -3.2275719   -1.0032067
H   -5.7226077   -0.5983008    1.8427309
H    3.6522606    6.5395439    0.0944988
C    0.8564367    7.4450916    1.9957897
H    1.2732258    8.4221497    2.2265098
H    0.6795592    6.8938793    2.9208336
H   -0.0798503    7.5650035    1.4478892
O    3.4541806    3.2487246   -1.3674197
C    3.3627094    1.9376304   -1.9332091
H    4.2790618    1.7977282   -2.5011227
H    2.5026364    1.8582574   -2.6011213
H    3.2966355    1.1778799   -1.1518989
$end

$rem
BASIS  =  def2-ma-TZVP
MEM_STATIC  =  2000
MEM_TOTAL  =  64000
METHOD  =  CAM-B3LYP
SOLVENT_METHOD = pcm
SYMMETRY_IGNORE  =  1
CIS_N_ROOTS = 7
CIS_SINGLETS = true
CIS_TRIPLETS = true
CISTR_PRINT = true
RPA = true
PRINT_ORBITALS = true
SCF_PRINT = 1
SCF_FINAL_PRINT = 2
PRINT_GENERAL_BASIS = true
CISTR_PRINT = true
PRINT_RADII_GYRE = true
MULTIPOLE_ORDER = 5
CIS_AMPL_PRINT = 5
CIS_AMPL_ANAL = true
STATE_ANALYSIS = true
$end

$pcm
Theory   CPCM
Method   SWIG
Solver   Inversion
Radii    Bondi
$end

$solvent
Dielectric         78.39
OpticalDielectric  1.777849
$end

--------------------------------------------------------------

             Standard Nuclear Orientation (Angstroms)
    I     Atom           X                Y                Z
 ----------------------------------------------------------------
    1      C      -2.7420756000    -1.5008458000    -0.4234649000
    2      C      -3.8872285000    -1.2873056000     0.3704726000
    3      C      -4.0237674000    -0.1213180000     1.0822137000
    4      C      -3.0144567000     0.8858121000     1.0266544000
    5      C      -1.8931485000     0.6116034000     0.2188700000
    6      C      -1.7327871000    -0.5602102000    -0.5090735000
    7      C      -3.0584334000     2.1046823000     1.7028730000
    8      C      -2.0395310000     3.0791066000     1.6186672000
    9      C      -0.9246741000     2.7249770000     0.7773198000
   10      O      -0.9199571000     1.5367825000     0.1432582000
   11      C       0.2618297000     3.5044803000     0.5016619000
   12      C       0.4216910000     4.8002110000     1.0287987000
   13      C       1.5679856000     5.5216378000     0.7416512000
   14      C       2.5738607000     4.9778757000    -0.0640805000
   15      C       2.4201378000     3.6877605000    -0.5928205000
   16      C       1.2771933000     2.9609410000    -0.3140576000
   17      O      -2.5964962000    -2.6544062000    -1.1348158000
   18      H      -4.6589017000    -2.0474311000     0.4166632000
   19      O      -5.1023948000     0.1449337000     1.8661166000
   20      H      -0.8545799000    -0.7246219000    -1.1166296000
   21      H      -3.9090199000     2.3375378000     2.3304236000
   22      O      -2.1124401000     4.1933818000     2.2523996000
   23      H      -0.3551509000     5.2116426000     1.6481090000
   24      O       1.8369211000     6.7856078000     1.1879285000
   25      O       3.7051230000     5.6776118000    -0.3484000000
   26      H       1.1622378000     1.9707972000    -0.7220226000
   27      H      -3.3655352000    -3.2275719000    -1.0032067000
   28      H      -5.7226077000    -0.5983008000     1.8427309000
   29      H       3.6522606000     6.5395439000     0.0944988000
   30      C       0.8564367000     7.4450916000     1.9957897000
   31      H       1.2732258000     8.4221497000     2.2265098000
   32      H       0.6795592000     6.8938793000     2.9208336000
   33      H      -0.0798503000     7.5650035000     1.4478892000
   34      O       3.4541806000     3.2487246000    -1.3674197000
   35      C       3.3627094000     1.9376304000    -1.9332091000
   36      H       4.2790618000     1.7977282000    -2.5011227000
   37      H       2.5026364000     1.8582574000    -2.6011213000
   38      H       3.2966355000     1.1778799000    -1.1518989000
 ----------------------------------------------------------------

   16   -1182.7203679123      5.09e-09  Convergence criterion met
 Total energy = -1182.72036791

             TDDFT Excitation Energies
 ---------------------------------------------------

 Excited state   1: excitation energy (eV) =        0.3834
 Total energy for state   1:                 -1182.70627728 au
    Multiplicity: Triplet
    Trans. Mom.:  0.0000 X   0.0000 Y   0.0000 Z
    Strength   :     0.0000000000
    X: D(   71) --> V(    1) amplitude = -0.1502
    Y: D(   71) --> V(    1) amplitude = -0.1270
    X: D(   74) --> V(    1) amplitude = -0.0835
    X: D(   81) --> V(    1) amplitude = -0.1231
    Y: D(   81) --> V(    1) amplitude = -0.0875
    X: D(   81) --> V(   11) amplitude = -0.0981
    Y: D(   81) --> V(   11) amplitude = -0.0809
    X: D(   82) --> V(    1) amplitude = -0.1662
    Y: D(   82) --> V(    1) amplitude = -0.1210
    X: D(   82) --> V(    2) amplitude =  0.0796
    Y: D(   82) --> V(    2) amplitude =  0.0748
    X: D(   82) --> V(   11) amplitude = -0.0736
    X: D(   84) --> V(    9) amplitude =  0.0799
    Y: D(   84) --> V(    9) amplitude =  0.0724
    X: D(   85) --> V(    1) amplitude = -0.1788
    Y: D(   85) --> V(    1) amplitude = -0.1200
    X: D(   85) --> V(    5) amplitude = -0.1106
    Y: D(   85) --> V(    5) amplitude = -0.0941
    X: D(   85) --> V(   11) amplitude = -0.0897
    Y: D(   85) --> V(   11) amplitude = -0.0723
    X: D(   86) --> V(    1) amplitude =  1.2647
    Y: D(   86) --> V(    1) amplitude =  0.8268
    X: D(   86) --> V(   11) amplitude =  0.0872

 Excited state   2: excitation energy (eV) =        2.2772
 Total energy for state   2:                 -1182.63668303 au
    Multiplicity: Singlet
    Trans. Mom.: -2.4014 X  -2.0229 Y   0.3269 Z
    Strength   :     0.5559946502
    X: D(   85) --> V(    1) amplitude = -0.1057
    X: D(   86) --> V(    1) amplitude =  0.9913
    Y: D(   86) --> V(    1) amplitude = -0.0954

 Excited state   3: excitation energy (eV) =        2.5765
 Total energy for state   3:                 -1182.62568280 au
    Multiplicity: Triplet
    Trans. Mom.:  0.0000 X   0.0000 Y   0.0000 Z
    Strength   :     0.0000000000
    X: D(   71) --> V(    1) amplitude =  0.0884
    X: D(   80) --> V(    1) amplitude =  0.1400
    X: D(   82) --> V(    5) amplitude = -0.1510
    X: D(   84) --> V(    1) amplitude = -0.0931
    X: D(   84) --> V(    9) amplitude =  0.1273
    X: D(   85) --> V(    1) amplitude =  0.8322
    Y: D(   85) --> V(    1) amplitude =  0.0972
    X: D(   85) --> V(   11) amplitude = -0.1349
    X: D(   86) --> V(    1) amplitude =  0.1277
    X: D(   86) --> V(    2) amplitude =  0.3423
    Y: D(   86) --> V(    2) amplitude =  0.0742
    X: D(   86) --> V(    5) amplitude = -0.1999
    X: D(   86) --> V(   11) amplitude = -0.1212

 Excited state   4: excitation energy (eV) =        3.0596
 Total energy for state   4:                 -1182.60793013 au
    Multiplicity: Triplet
    Trans. Mom.:  0.0000 X   0.0000 Y   0.0000 Z
    Strength   :     0.0000000000
    X: D(   76) --> V(    1) amplitude =  0.0739
    X: D(   83) --> V(    1) amplitude = -0.2569
    X: D(   84) --> V(    1) amplitude =  0.8964
    X: D(   84) --> V(    2) amplitude =  0.1623
    X: D(   84) --> V(    5) amplitude = -0.1707
    X: D(   84) --> V(   11) amplitude = -0.1386
    X: D(   85) --> V(    1) amplitude =  0.1304

 Excited state   5: excitation energy (eV) =        3.1008
 Total energy for state   5:                 -1182.60641523 au
    Multiplicity: Triplet
    Trans. Mom.:  0.0000 X   0.0000 Y   0.0000 Z
    Strength   :     0.0000000000
    X: D(   83) --> V(    1) amplitude =  0.9473
    X: D(   83) --> V(   11) amplitude =  0.1210
    X: D(   84) --> V(    1) amplitude =  0.2379

 Excited state   6: excitation energy (eV) =        3.2533
 Total energy for state   6:                 -1182.60081162 au
    Multiplicity: Singlet
    Trans. Mom.: -0.0017 X   0.0125 Y   0.0106 Z
    Strength   :     0.0000215991
    X: D(   83) --> V(    1) amplitude =  0.9846
    X: D(   83) --> V(   11) amplitude =  0.1168

 Excited state   7: excitation energy (eV) =        3.2722
 Total energy for state   7:                 -1182.60011651 au
    Multiplicity: Triplet
    Trans. Mom.:  0.0000 X   0.0000 Y   0.0000 Z
    Strength   :     0.0000000000
    X: D(   81) --> V(    1) amplitude =  0.1852
    X: D(   81) --> V(    2) amplitude = -0.0774
    X: D(   82) --> V(    1) amplitude =  0.7283
    X: D(   82) --> V(    2) amplitude =  0.0956
    X: D(   82) --> V(    5) amplitude =  0.2020
    X: D(   84) --> V(    1) amplitude = -0.1102
    X: D(   84) --> V(    5) amplitude =  0.0914
    X: D(   85) --> V(    1) amplitude =  0.0775
    X: D(   85) --> V(    2) amplitude =  0.1518
    X: D(   85) --> V(    5) amplitude = -0.2980
    X: D(   86) --> V(    1) amplitude =  0.0848
    X: D(   86) --> V(    2) amplitude = -0.2681
    X: D(   86) --> V(    5) amplitude =  0.1721
    X: D(   86) --> V(   11) amplitude = -0.2546
    X: D(   86) --> V(   14) amplitude = -0.1034
    X: D(   86) --> V(   18) amplitude = -0.0774

 Excited state   8: excitation energy (eV) =        3.4315
 Total energy for state   8:                 -1182.59426306 au
    Multiplicity: Triplet
    Trans. Mom.:  0.0000 X   0.0000 Y   0.0000 Z
    Strength   :     0.0000000000
    X: D(   82) --> V(    1) amplitude =  0.2851
    X: D(   82) --> V(    2) amplitude = -0.1165
    X: D(   82) --> V(    5) amplitude =  0.1065
    X: D(   84) --> V(    1) amplitude =  0.0723
    X: D(   85) --> V(    1) amplitude = -0.3236
    X: D(   85) --> V(    2) amplitude = -0.1400
    X: D(   85) --> V(    5) amplitude = -0.1007
    X: D(   86) --> V(    2) amplitude =  0.8275
    Y: D(   86) --> V(    2) amplitude =  0.0765
    X: D(   86) --> V(    5) amplitude =  0.0813
    X: D(   86) --> V(   32) amplitude = -0.1005

 Excited state   9: excitation energy (eV) =        3.5998
 Total energy for state   9:                 -1182.58807706 au
    Multiplicity: Singlet
    Trans. Mom.: -1.0322 X  -0.8276 Y   0.1544 Z
    Strength   :     0.1564601690
    X: D(   80) --> V(    1) amplitude =  0.0795
    X: D(   82) --> V(    1) amplitude = -0.2702
    X: D(   82) --> V(    5) amplitude = -0.0738
    X: D(   84) --> V(    1) amplitude = -0.2132
    X: D(   85) --> V(    1) amplitude =  0.9078
    X: D(   86) --> V(    1) amplitude =  0.0841
    X: D(   86) --> V(    2) amplitude =  0.1500

 Excited state  10: excitation energy (eV) =        3.6667
 Total energy for state  10:                 -1182.58561814 au
    Multiplicity: Singlet
    Trans. Mom.: -0.2626 X  -0.6548 Y  -0.1711 Z
    Strength   :     0.0473418818
    X: D(   84) --> V(    1) amplitude =  0.9464
    X: D(   84) --> V(    2) amplitude =  0.0848
    X: D(   84) --> V(    5) amplitude = -0.1028
    X: D(   85) --> V(    1) amplitude =  0.2136
    X: D(   85) --> V(    9) amplitude = -0.0847
    X: D(   86) --> V(    9) amplitude = -0.1230

 Excited state  11: excitation energy (eV) =        3.7218
 Total energy for state  11:                 -1182.58359425 au
    Multiplicity: Triplet
    Trans. Mom.:  0.0000 X   0.0000 Y   0.0000 Z
    Strength   :     0.0000000000
    X: D(   74) --> V(    1) amplitude = -0.1166
    X: D(   79) --> V(    1) amplitude = -0.2110
    X: D(   81) --> V(    1) amplitude = -0.8139
    X: D(   81) --> V(    2) amplitude =  0.1166
    X: D(   81) --> V(    5) amplitude = -0.1496
    X: D(   82) --> V(    1) amplitude =  0.3072
    X: D(   85) --> V(    2) amplitude =  0.0972
    X: D(   85) --> V(   11) amplitude = -0.1166
    X: D(   86) --> V(    5) amplitude = -0.2527
    X: D(   86) --> V(   11) amplitude =  0.1117
    X: D(   86) --> V(   32) amplitude =  0.0849

 Excited state  12: excitation energy (eV) =        4.1856
 Total energy for state  12:                 -1182.56655165 au
    Multiplicity: Singlet
    Trans. Mom.: -0.7073 X  -0.6029 Y   0.0852 Z
    Strength   :     0.0893187976
    X: D(   80) --> V(    1) amplitude =  0.0871
    X: D(   81) --> V(    1) amplitude =  0.2535
    X: D(   82) --> V(    1) amplitude =  0.8557
    X: D(   85) --> V(    1) amplitude =  0.2667
    X: D(   85) --> V(    2) amplitude =  0.1433
    X: D(   86) --> V(    2) amplitude = -0.2598

 Excited state  13: excitation energy (eV) =        4.4683
 Total energy for state  13:                 -1182.55616190 au
    Multiplicity: Singlet
    Trans. Mom.: -0.2858 X   0.5104 Y   0.4438 Z
    Strength   :     0.0590162750
    X: D(   81) --> V(    1) amplitude =  0.5598
    X: D(   81) --> V(    5) amplitude =  0.0786
    X: D(   82) --> V(    1) amplitude =  0.1409
    X: D(   82) --> V(   11) amplitude =  0.0770
    X: D(   85) --> V(    1) amplitude = -0.1290
    X: D(   85) --> V(    2) amplitude = -0.1706
    X: D(   86) --> V(    2) amplitude =  0.7277
    X: D(   86) --> V(    5) amplitude =  0.2108

 Excited state  14: excitation energy (eV) =        4.9049
 Total energy for state  14:                 -1182.54011715 au
    Multiplicity: Singlet
    Trans. Mom.:  0.2397 X  -1.5956 Y  -1.0030 Z
    Strength   :     0.4337417403
    X: D(   80) --> V(    1) amplitude =  0.0867
    X: D(   81) --> V(    1) amplitude =  0.7058
    X: D(   82) --> V(    1) amplitude = -0.3376
    X: D(   82) --> V(    2) amplitude =  0.0998
    X: D(   84) --> V(    9) amplitude = -0.0824
    X: D(   86) --> V(    2) amplitude = -0.5478
    X: D(   86) --> V(    5) amplitude =  0.1253
    X: D(   86) --> V(    9) amplitude = -0.0853

 ---------------------------------------------------

                    Orbital Energies (a.u.)
 --------------------------------------------------------------

 Alpha MOs
 -- Occupied --
-19.3040 -19.2480 -19.2456 -19.2423 -19.2418 -19.2372 -19.1357 -10.3521
-10.3448 -10.3409 -10.3385 -10.3225 -10.3200 -10.3185 -10.3155 -10.2940
-10.2922 -10.2815 -10.2766 -10.2750 -10.2614 -10.2560 -10.2547 -10.2533
 -1.2297  -1.1735  -1.1632  -1.1585  -1.1540  -1.1374  -1.0638  -0.9711
 -0.9518  -0.9017  -0.8876  -0.8495  -0.8454  -0.8243  -0.7949  -0.7802
 -0.7612  -0.7444  -0.7101  -0.7024  -0.6875  -0.6702  -0.6379  -0.6361
 -0.6209  -0.5997  -0.5915  -0.5849  -0.5740  -0.5735  -0.5616  -0.5548
 -0.5435  -0.5412  -0.5315  -0.5147  -0.5143  -0.5086  -0.5018  -0.4964
 -0.4949  -0.4874  -0.4845  -0.4782  -0.4708  -0.4565  -0.4503  -0.4445
 -0.4345  -0.4320  -0.4283  -0.4197  -0.4180  -0.4093  -0.4083  -0.3816
 -0.3365  -0.3169  -0.3054  -0.2915  -0.2868  -0.2371

                    Cartesian Multipole Moments
                  LMN = < X^L Y^M Z^N >

 Total job time:  6053.97s(wall), 82769.26s(cpu)
        *  Thank you very much for using Q-Chem.  Have a nice day.  *
