 Q-Chem 6.2, Q-Chem, Inc., Pleasanton, CA (2024)
 Q-Chem 6.2.0 for Intel X86 EM64T Linux

User input:
--------------------------------------------------------------
$comment
TDDFT calculation of malvidin Q4 structure
nprocs=16
mem=64gb
$end

$molecule
0 1
C   -2.7753986   -1.5408586   -0.4952764
C   -3.9211397   -1.2819802    0.3510044
C   -4.0391490   -0.1362409    1.0743655
C   -3.0180072    0.8706391    1.0214079
C   -1.8957056    0.6020650    0.1816445
C   -1.7555250   -0.5405007   -0.5527200
C   -3.0418030    2.0587508    1.7140024
C   -2.0013571    2.9913838    1.6080399
C   -0.9186157    2.7213590    0.7855297
O   -0.9169920    1.5421552    0.1129868
C    0.2675482    3.5197719    0.5155242
C    0.4209697    4.8214489    1.0245538
C    1.5676439    5.5419549    0.7317321
C    2.5780739    4.9909179   -0.0633484
C    2.4287491    3.6960421   -0.5738055
C    1.2845224    2.9697386   -0.2870865
O   -2.6932155   -2.6234566   -1.1546738
H   -4.6981505   -2.0360166    0.3997567
O   -5.1003926    0.1412459    1.8828771
H   -0.8841404   -0.6962916   -1.1738286
H   -3.8764789    2.2934261    2.3633460
O   -2.0480040    4.1589344    2.3169239
H   -0.3460311    5.2642410    1.6323387
O    1.8315116    6.8116587    1.1622903
O    3.7090762    5.6917881   -0.3533307
H    1.1740114    1.9737623   -0.6809881
H   -5.7303481   -0.5938631    1.8606079
H   -2.8566799    4.1819248    2.8484167
H    3.6505477    6.5597877    0.0764255
C    0.8495740    7.4822782    1.9588658
H    1.2667221    8.4618038    2.1779412
H    0.6703043    6.9433522    2.8907483
H   -0.0851626    7.5963817    1.4069809
O    3.4637145    3.2457481   -1.3402594
C    3.3713607    1.9294221   -1.8939698
H    4.2881314    1.7834975   -2.4596500
H    2.5119988    1.8448752   -2.5621195
H    3.3038867    1.1768035   -1.1059937
$end

$rem
BASIS  =  def2-ma-TZVP
MEM_STATIC  =  2000
MEM_TOTAL  =  64000
METHOD  =  CAM-B3LYP
SOLVENT_METHOD = pcm
SYMMETRY_IGNORE  =  1
CIS_N_ROOTS = 7
CIS_SINGLETS = true
CIS_TRIPLETS = true
CISTR_PRINT = true
RPA = true
PRINT_ORBITALS = true
SCF_PRINT = 1
SCF_FINAL_PRINT = 2
PRINT_GENERAL_BASIS = true
CISTR_PRINT = true
PRINT_RADII_GYRE = true
MULTIPOLE_ORDER = 5
CIS_AMPL_PRINT = 5
CIS_AMPL_ANAL = true
STATE_ANALYSIS = true
$end

$pcm
Theory   CPCM
Method   SWIG
Solver   Inversion
Radii    Bondi
$end

$solvent
Dielectric         78.39
OpticalDielectric  1.777849
$end

--------------------------------------------------------------

             Standard Nuclear Orientation (Angstroms)
    I     Atom           X                Y                Z
 ----------------------------------------------------------------
    1      C      -2.7753986000    -1.5408586000    -0.4952764000
    2      C      -3.9211397000    -1.2819802000     0.3510044000
    3      C      -4.0391490000    -0.1362409000     1.0743655000
    4      C      -3.0180072000     0.8706391000     1.0214079000
    5      C      -1.8957056000     0.6020650000     0.1816445000
    6      C      -1.7555250000    -0.5405007000    -0.5527200000
    7      C      -3.0418030000     2.0587508000     1.7140024000
    8      C      -2.0013571000     2.9913838000     1.6080399000
    9      C      -0.9186157000     2.7213590000     0.7855297000
   10      O      -0.9169920000     1.5421552000     0.1129868000
   11      C       0.2675482000     3.5197719000     0.5155242000
   12      C       0.4209697000     4.8214489000     1.0245538000
   13      C       1.5676439000     5.5419549000     0.7317321000
   14      C       2.5780739000     4.9909179000    -0.0633484000
   15      C       2.4287491000     3.6960421000    -0.5738055000
   16      C       1.2845224000     2.9697386000    -0.2870865000
   17      O      -2.6932155000    -2.6234566000    -1.1546738000
   18      H      -4.6981505000    -2.0360166000     0.3997567000
   19      O      -5.1003926000     0.1412459000     1.8828771000
   20      H      -0.8841404000    -0.6962916000    -1.1738286000
   21      H      -3.8764789000     2.2934261000     2.3633460000
   22      O      -2.0480040000     4.1589344000     2.3169239000
   23      H      -0.3460311000     5.2642410000     1.6323387000
   24      O       1.8315116000     6.8116587000     1.1622903000
   25      O       3.7090762000     5.6917881000    -0.3533307000
   26      H       1.1740114000     1.9737623000    -0.6809881000
   27      H      -5.7303481000    -0.5938631000     1.8606079000
   28      H      -2.8566799000     4.1819248000     2.8484167000
   29      H       3.6505477000     6.5597877000     0.0764255000
   30      C       0.8495740000     7.4822782000     1.9588658000
   31      H       1.2667221000     8.4618038000     2.1779412000
   32      H       0.6703043000     6.9433522000     2.8907483000
   33      H      -0.0851626000     7.5963817000     1.4069809000
   34      O       3.4637145000     3.2457481000    -1.3402594000
   35      C       3.3713607000     1.9294221000    -1.8939698000
   36      H       4.2881314000     1.7834975000    -2.4596500000
   37      H       2.5119988000     1.8448752000    -2.5621195000
   38      H       3.3038867000     1.1768035000    -1.1059937000
 ----------------------------------------------------------------

   16   -1182.7231803756      4.83e-09  Convergence criterion met
 Total energy = -1182.72318038

             TDDFT Excitation Energies
 ---------------------------------------------------

 Excited state   1: excitation energy (eV) =        1.2605
 Total energy for state   1:                 -1182.67685722 au
    Multiplicity: Triplet
    Trans. Mom.:  0.0000 X   0.0000 Y   0.0000 Z
    Strength   :     0.0000000000
    X: D(   79) --> V(    1) amplitude = -0.0835
    X: D(   81) --> V(    1) amplitude =  0.1188
    X: D(   81) --> V(    2) amplitude = -0.0824
    X: D(   83) --> V(    1) amplitude = -0.0827
    X: D(   85) --> V(    1) amplitude =  0.1706
    X: D(   85) --> V(    2) amplitude =  0.1209
    X: D(   86) --> V(    1) amplitude =  0.9883
    Y: D(   86) --> V(    1) amplitude =  0.2707

 Excited state   2: excitation energy (eV) =        2.5545
 Total energy for state   2:                 -1182.62930256 au
    Multiplicity: Singlet
    Trans. Mom.: -2.0977 X  -2.4455 Y  -0.1030 Z
    Strength   :     0.6503263158
    X: D(   83) --> V(    1) amplitude =  0.1139
    X: D(   85) --> V(    1) amplitude =  0.1760
    X: D(   86) --> V(    1) amplitude =  0.9699

 Excited state   3: excitation energy (eV) =        2.6451
 Total energy for state   3:                 -1182.62597433 au
    Multiplicity: Triplet
    Trans. Mom.:  0.0000 X   0.0000 Y   0.0000 Z
    Strength   :     0.0000000000
    X: D(   80) --> V(    1) amplitude = -0.0791
    X: D(   81) --> V(    1) amplitude = -0.1323
    X: D(   83) --> V(    1) amplitude =  0.1884
    X: D(   83) --> V(    2) amplitude =  0.0931
    X: D(   83) --> V(    6) amplitude = -0.0799
    X: D(   84) --> V(    6) amplitude = -0.0947
    X: D(   84) --> V(    8) amplitude =  0.1168
    X: D(   85) --> V(    1) amplitude =  0.7683
    Y: D(   85) --> V(    1) amplitude =  0.0788
    X: D(   85) --> V(    6) amplitude =  0.1222
    X: D(   85) --> V(    8) amplitude =  0.1077
    X: D(   85) --> V(   12) amplitude =  0.1111
    X: D(   86) --> V(    2) amplitude =  0.4991
    Y: D(   86) --> V(    2) amplitude =  0.0949

 Excited state   4: excitation energy (eV) =        2.9021
 Total energy for state   4:                 -1182.61653088 au
    Multiplicity: Triplet
    Trans. Mom.:  0.0000 X   0.0000 Y   0.0000 Z
    Strength   :     0.0000000000
    X: D(   79) --> V(    1) amplitude =  0.1103
    X: D(   81) --> V(    1) amplitude =  0.1475
    X: D(   83) --> V(    1) amplitude =  0.8726
    Y: D(   83) --> V(    1) amplitude =  0.0973
    X: D(   83) --> V(    2) amplitude =  0.1026
    X: D(   83) --> V(    6) amplitude = -0.2059
    X: D(   83) --> V(    8) amplitude = -0.1694
    X: D(   83) --> V(   12) amplitude =  0.0811
    X: D(   85) --> V(    2) amplitude =  0.1044
    X: D(   85) --> V(    6) amplitude = -0.0899
    X: D(   86) --> V(    2) amplitude = -0.1823
    X: D(   86) --> V(    6) amplitude =  0.0995
    X: D(   86) --> V(    8) amplitude =  0.0801

 Excited state   5: excitation energy (eV) =        3.3195
 Total energy for state   5:                 -1182.60119213 au
    Multiplicity: Triplet
    Trans. Mom.:  0.0000 X   0.0000 Y   0.0000 Z
    Strength   :     0.0000000000
    X: D(   76) --> V(    1) amplitude =  0.0748
    X: D(   84) --> V(    1) amplitude =  0.8990
    X: D(   84) --> V(    2) amplitude = -0.3408
    X: D(   84) --> V(    6) amplitude =  0.1567
    X: D(   84) --> V(    8) amplitude =  0.0873
    X: D(   84) --> V(   12) amplitude =  0.1144

 Excited state   6: excitation energy (eV) =        3.5047
 Total energy for state   6:                 -1182.59438450 au
    Multiplicity: Triplet
    Trans. Mom.:  0.0000 X   0.0000 Y   0.0000 Z
    Strength   :     0.0000000000
    X: D(   74) --> V(    1) amplitude =  0.0716
    X: D(   79) --> V(    1) amplitude =  0.1336
    X: D(   81) --> V(    1) amplitude = -0.3419
    X: D(   81) --> V(   30) amplitude =  0.0767
    X: D(   85) --> V(    1) amplitude = -0.3536
    X: D(   85) --> V(    2) amplitude =  0.4307
    X: D(   85) --> V(    8) amplitude =  0.0874
    X: D(   86) --> V(    1) amplitude =  0.0868
    X: D(   86) --> V(    2) amplitude =  0.5614
    X: D(   86) --> V(    6) amplitude =  0.1909
    X: D(   86) --> V(    8) amplitude =  0.2227
    X: D(   86) --> V(   12) amplitude =  0.2113
    X: D(   86) --> V(   14) amplitude =  0.1030
    X: D(   86) --> V(   17) amplitude =  0.0972

 Excited state   7: excitation energy (eV) =        3.5831
 Total energy for state   7:                 -1182.59150294 au
    Multiplicity: Singlet
    Trans. Mom.:  1.0779 X   0.9883 Y  -0.0919 Z
    Strength   :     0.1884776649
    X: D(   81) --> V(    1) amplitude = -0.1497
    X: D(   83) --> V(    1) amplitude =  0.5157
    X: D(   83) --> V(    2) amplitude =  0.1070
    X: D(   85) --> V(    1) amplitude =  0.7989
    X: D(   86) --> V(    1) amplitude = -0.1939
    X: D(   86) --> V(    2) amplitude =  0.1086

 Excited state   8: excitation energy (eV) =        3.7241
 Total energy for state   8:                 -1182.58632321 au
    Multiplicity: Triplet
    Trans. Mom.:  0.0000 X   0.0000 Y   0.0000 Z
    Strength   :     0.0000000000
    X: D(   82) --> V(    1) amplitude =  0.8800
    X: D(   82) --> V(    2) amplitude =  0.3581
    X: D(   82) --> V(    6) amplitude = -0.0808
    X: D(   82) --> V(   12) amplitude =  0.2354
    X: D(   82) --> V(   30) amplitude = -0.1061

 Excited state   9: excitation energy (eV) =        3.8749
 Total energy for state   9:                 -1182.58077987 au
    Multiplicity: Triplet
    Trans. Mom.:  0.0000 X   0.0000 Y   0.0000 Z
    Strength   :     0.0000000000
    X: D(   65) --> V(    1) amplitude = -0.0756
    X: D(   80) --> V(    1) amplitude = -0.1987
    X: D(   81) --> V(    1) amplitude =  0.5355
    X: D(   81) --> V(    2) amplitude =  0.1861
    X: D(   84) --> V(    6) amplitude = -0.2186
    X: D(   84) --> V(    8) amplitude =  0.2393
    X: D(   85) --> V(    1) amplitude = -0.3583
    X: D(   85) --> V(    2) amplitude = -0.2500
    X: D(   85) --> V(   12) amplitude =  0.1163
    X: D(   86) --> V(    1) amplitude =  0.0943
    X: D(   86) --> V(    2) amplitude =  0.4650
    X: D(   86) --> V(    8) amplitude = -0.1064
    X: D(   86) --> V(   12) amplitude = -0.1260

 Excited state  10: excitation energy (eV) =        3.9027
 Total energy for state  10:                 -1182.57975806 au
    Multiplicity: Singlet
    Trans. Mom.:  0.0178 X   0.4938 Y   0.2218 Z
    Strength   :     0.0280481766
    X: D(   83) --> V(    1) amplitude =  0.0939
    X: D(   84) --> V(    1) amplitude =  0.9506
    X: D(   84) --> V(    2) amplitude = -0.1885
    X: D(   84) --> V(    6) amplitude =  0.0889
    X: D(   85) --> V(    6) amplitude =  0.0717
    X: D(   85) --> V(    8) amplitude = -0.0830
    X: D(   86) --> V(    6) amplitude = -0.0931
    X: D(   86) --> V(    8) amplitude =  0.1042

 Excited state  11: excitation energy (eV) =        4.0004
 Total energy for state  11:                 -1182.57616804 au
    Multiplicity: Singlet
    Trans. Mom.: -0.0070 X   0.0039 Y   0.0141 Z
    Strength   :     0.0000257922
    X: D(   82) --> V(    1) amplitude =  0.9131
    X: D(   82) --> V(    2) amplitude =  0.3149
    X: D(   82) --> V(    6) amplitude = -0.0767
    X: D(   82) --> V(   12) amplitude =  0.1974
    X: D(   82) --> V(   30) amplitude = -0.0814

 Excited state  12: excitation energy (eV) =        4.1584
 Total energy for state  12:                 -1182.57036224 au
    Multiplicity: Singlet
    Trans. Mom.: -0.6552 X   0.1990 Y   0.5096 Z
    Strength   :     0.0742306903
    X: D(   83) --> V(    1) amplitude =  0.7537
    X: D(   83) --> V(    2) amplitude =  0.1131
    X: D(   84) --> V(    1) amplitude = -0.0894
    X: D(   85) --> V(    1) amplitude = -0.5296
    X: D(   85) --> V(    2) amplitude =  0.1976
    X: D(   86) --> V(    2) amplitude =  0.2238
    X: D(   86) --> V(    6) amplitude =  0.1021
    X: D(   86) --> V(    8) amplitude =  0.0958

 Excited state  13: excitation energy (eV) =        4.7207
 Total energy for state  13:                 -1182.54969785 au
    Multiplicity: Singlet
    Trans. Mom.:  0.7247 X  -0.9500 Y  -1.0007 Z
    Strength   :     0.2809117383
    X: D(   81) --> V(    1) amplitude =  0.2049
    X: D(   83) --> V(    1) amplitude = -0.2693
    X: D(   83) --> V(    6) amplitude = -0.0714
    X: D(   83) --> V(    8) amplitude = -0.0808
    X: D(   84) --> V(    8) amplitude =  0.0760
    X: D(   85) --> V(    1) amplitude =  0.0769
    X: D(   85) --> V(    8) amplitude =  0.0959
    X: D(   85) --> V(   12) amplitude =  0.0847
    X: D(   86) --> V(    2) amplitude =  0.8756
    X: D(   86) --> V(    6) amplitude =  0.1796
    X: D(   86) --> V(    8) amplitude =  0.1226

 Excited state  14: excitation energy (eV) =        5.1906
 Total energy for state  14:                 -1182.53242947 au
    Multiplicity: Singlet
    Trans. Mom.: -0.3911 X   0.6941 Y   0.6616 Z
    Strength   :     0.1363765269
    X: D(   80) --> V(    1) amplitude = -0.1551
    X: D(   81) --> V(    1) amplitude =  0.8862
    X: D(   83) --> V(    1) amplitude =  0.1023
    X: D(   85) --> V(    1) amplitude =  0.1074
    X: D(   85) --> V(    2) amplitude = -0.0999
    X: D(   85) --> V(    6) amplitude =  0.1062
    X: D(   86) --> V(    2) amplitude = -0.2454
    X: D(   86) --> V(    6) amplitude =  0.1420
    X: D(   86) --> V(    8) amplitude =  0.1542
    X: D(   86) --> V(   12) amplitude = -0.0885

 ---------------------------------------------------

                    Orbital Energies (a.u.)
 --------------------------------------------------------------

 Alpha MOs
 -- Occupied --
-19.2934 -19.2465 -19.2454 -19.2433 -19.2415 -19.2376 -19.1541 -10.3579
-10.3452 -10.3370 -10.3364 -10.3216 -10.3207 -10.3206 -10.3205 -10.2995
-10.2951 -10.2923 -10.2852 -10.2814 -10.2576 -10.2568 -10.2457 -10.2365
 -1.2203  -1.1737  -1.1616  -1.1595  -1.1547  -1.1373  -1.0773  -0.9661
 -0.9528  -0.9205  -0.8784  -0.8504  -0.8421  -0.8253  -0.7967  -0.7804
 -0.7604  -0.7485  -0.7132  -0.7065  -0.6792  -0.6492  -0.6455  -0.6329
 -0.6260  -0.6038  -0.5933  -0.5837  -0.5782  -0.5718  -0.5666  -0.5555
 -0.5434  -0.5418  -0.5373  -0.5269  -0.5114  -0.5058  -0.5039  -0.4949
 -0.4909  -0.4894  -0.4850  -0.4758  -0.4665  -0.4646  -0.4523  -0.4453
 -0.4373  -0.4356  -0.4241  -0.4205  -0.4161  -0.4075  -0.4041  -0.3881
 -0.3497  -0.3142  -0.3057  -0.2930  -0.2868  -0.2471

                    Cartesian Multipole Moments
                  LMN = < X^L Y^M Z^N >

 Total job time:  6134.67s(wall), 83180.79s(cpu)
        *  Thank you very much for using Q-Chem.  Have a nice day.  *
