 Q-Chem 6.2, Q-Chem, Inc., Pleasanton, CA (2024)
 Q-Chem 6.2.0 for Intel X86 EM64T Linux

User input:
--------------------------------------------------------------
$comment
TDDFT calculation of malvidin Q1 structure
nprocs=16
mem=64gb
$end

$molecule
0 1
C   -2.7432967   -1.5122524   -0.4069706
C   -3.8855745   -1.2918800    0.3730943
C   -4.0178771   -0.1103225    1.0760847
C   -3.0118832    0.8803353    1.0148479
C   -1.8898693    0.6051135    0.2221021
C   -1.7280286   -0.5684439   -0.4926896
C   -3.0507539    2.1244811    1.6893733
C   -2.0348452    3.0290457    1.5724992
C   -0.8929551    2.7367146    0.7606454
O   -0.8965296    1.5298286    0.1359085
C    0.2566915    3.5109034    0.5051700
C    0.4427413    4.8235842    1.0320315
C    1.5742671    5.5368558    0.7520658
C    2.6378131    5.0122850   -0.0763962
C    2.4176436    3.6774603   -0.5997808
C    1.2857720    2.9674269   -0.3231992
O   -2.5849371   -2.6683077   -1.1132876
H   -4.6623926   -2.0460586    0.4245084
O   -5.1034644    0.1621705    1.8517062
H   -0.8472272   -0.7409577   -1.0942127
H   -3.9003766    2.3711317    2.3135472
O   -2.0683110    4.2270794    2.2225225
H   -0.3194929    5.2572118    1.6518819
O    1.8248879    6.8025736    1.2127311
O    3.6844035    5.6676958   -0.3285930
H    1.1590510    1.9781171   -0.7308840
H   -3.3525272   -3.2443492   -0.9858692
H   -5.7229192   -0.5814454    1.8293495
H   -2.8858040    4.2899421    2.7381049
C    0.8295402    7.4315032    2.0193745
H    1.2253593    8.4130547    2.2698780
H    0.6492611    6.8668485    2.9371273
H   -0.1074378    7.5462408    1.4690604
O    3.4452592    3.2271816   -1.3800071
C    3.3353375    1.9214473   -1.9472225
H    4.2452760    1.7686696   -2.5226753
H    2.4686720    1.8518231   -2.6088103
H    3.2636370    1.1591621   -1.1678767
$end

$rem
BASIS  =  def2-ma-TZVP
MEM_STATIC  =  2000
MEM_TOTAL  =  64000
METHOD  =  CAM-B3LYP
SOLVENT_METHOD = pcm
SYMMETRY_IGNORE  =  1
CIS_N_ROOTS = 7
CIS_SINGLETS = true
CIS_TRIPLETS = true
CISTR_PRINT = true
RPA = true
PRINT_ORBITALS = true
SCF_PRINT = 1
SCF_FINAL_PRINT = 2
PRINT_GENERAL_BASIS = true
CISTR_PRINT = true
PRINT_RADII_GYRE = true
MULTIPOLE_ORDER = 5
CIS_AMPL_PRINT = 5
CIS_AMPL_ANAL = true
STATE_ANALYSIS = true
$end

$pcm
Theory   CPCM
Method   SWIG
Solver   Inversion
Radii    Bondi
$end

$solvent
Dielectric         78.39
OpticalDielectric  1.777849
$end

--------------------------------------------------------------

             Standard Nuclear Orientation (Angstroms)
    I     Atom           X                Y                Z
 ----------------------------------------------------------------
    1      C      -2.7432967000    -1.5122524000    -0.4069706000
    2      C      -3.8855745000    -1.2918800000     0.3730943000
    3      C      -4.0178771000    -0.1103225000     1.0760847000
    4      C      -3.0118832000     0.8803353000     1.0148479000
    5      C      -1.8898693000     0.6051135000     0.2221021000
    6      C      -1.7280286000    -0.5684439000    -0.4926896000
    7      C      -3.0507539000     2.1244811000     1.6893733000
    8      C      -2.0348452000     3.0290457000     1.5724992000
    9      C      -0.8929551000     2.7367146000     0.7606454000
   10      O      -0.8965296000     1.5298286000     0.1359085000
   11      C       0.2566915000     3.5109034000     0.5051700000
   12      C       0.4427413000     4.8235842000     1.0320315000
   13      C       1.5742671000     5.5368558000     0.7520658000
   14      C       2.6378131000     5.0122850000    -0.0763962000
   15      C       2.4176436000     3.6774603000    -0.5997808000
   16      C       1.2857720000     2.9674269000    -0.3231992000
   17      O      -2.5849371000    -2.6683077000    -1.1132876000
   18      H      -4.6623926000    -2.0460586000     0.4245084000
   19      O      -5.1034644000     0.1621705000     1.8517062000
   20      H      -0.8472272000    -0.7409577000    -1.0942127000
   21      H      -3.9003766000     2.3711317000     2.3135472000
   22      O      -2.0683110000     4.2270794000     2.2225225000
   23      H      -0.3194929000     5.2572118000     1.6518819000
   24      O       1.8248879000     6.8025736000     1.2127311000
   25      O       3.6844035000     5.6676958000    -0.3285930000
   26      H       1.1590510000     1.9781171000    -0.7308840000
   27      H      -3.3525272000    -3.2443492000    -0.9858692000
   28      H      -5.7229192000    -0.5814454000     1.8293495000
   29      H      -2.8858040000     4.2899421000     2.7381049000
   30      C       0.8295402000     7.4315032000     2.0193745000
   31      H       1.2253593000     8.4130547000     2.2698780000
   32      H       0.6492611000     6.8668485000     2.9371273000
   33      H      -0.1074378000     7.5462408000     1.4690604000
   34      O       3.4452592000     3.2271816000    -1.3800071000
   35      C       3.3353375000     1.9214473000    -1.9472225000
   36      H       4.2452760000     1.7686696000    -2.5226753000
   37      H       2.4686720000     1.8518231000    -2.6088103000
   38      H       3.2636370000     1.1591621000    -1.1678767000
 ----------------------------------------------------------------

   16   -1182.7209093741      4.10e-09  Convergence criterion met
 Total energy = -1182.72090937

             TDDFT Excitation Energies
 ---------------------------------------------------

 Excited state   1: excitation energy (eV) =        0.7884
 Total energy for state   1:                 -1182.69193693 au
    Multiplicity: Triplet
    Trans. Mom.:  0.0000 X   0.0000 Y   0.0000 Z
    Strength   :     0.0000000000
    X: D(   81) --> V(    1) amplitude = -0.0907
    X: D(   83) --> V(    1) amplitude =  0.0786
    X: D(   83) --> V(    2) amplitude = -0.0948
    X: D(   85) --> V(    1) amplitude = -0.0828
    X: D(   85) --> V(    2) amplitude =  0.1057
    X: D(   85) --> V(    4) amplitude =  0.0752
    X: D(   86) --> V(    1) amplitude =  1.0882
    Y: D(   86) --> V(    1) amplitude =  0.4919

 Excited state   2: excitation energy (eV) =        2.4842
 Total energy for state   2:                 -1182.62961649 au
    Multiplicity: Triplet
    Trans. Mom.:  0.0000 X   0.0000 Y   0.0000 Z
    Strength   :     0.0000000000
    X: D(   80) --> V(    1) amplitude =  0.1141
    X: D(   81) --> V(    1) amplitude = -0.1876
    X: D(   81) --> V(   12) amplitude = -0.0899
    X: D(   81) --> V(   30) amplitude = -0.0727
    X: D(   83) --> V(    1) amplitude = -0.1985
    X: D(   83) --> V(    2) amplitude = -0.0919
    X: D(   83) --> V(    4) amplitude =  0.1176
    X: D(   84) --> V(    1) amplitude =  0.0951
    X: D(   85) --> V(    1) amplitude =  0.7579
    Y: D(   85) --> V(    1) amplitude =  0.0994
    X: D(   85) --> V(    2) amplitude =  0.1758
    X: D(   85) --> V(    4) amplitude =  0.1315
    X: D(   86) --> V(    2) amplitude =  0.4660
    Y: D(   86) --> V(    2) amplitude =  0.0810
    X: D(   86) --> V(    4) amplitude =  0.1015
    X: D(   86) --> V(   12) amplitude =  0.0789

 Excited state   3: excitation energy (eV) =        2.5153
 Total energy for state   3:                 -1182.62847549 au
    Multiplicity: Singlet
    Trans. Mom.:  3.3057 X   2.7765 Y  -0.4484 Z
    Strength   :     1.1608514391
    X: D(   85) --> V(    1) amplitude =  0.0856
    X: D(   86) --> V(    1) amplitude =  0.9873
    Y: D(   86) --> V(    1) amplitude = -0.0858

 Excited state   4: excitation energy (eV) =        2.7164
 Total energy for state   4:                 -1182.62108222 au
    Multiplicity: Triplet
    Trans. Mom.:  0.0000 X   0.0000 Y   0.0000 Z
    Strength   :     0.0000000000
    X: D(   76) --> V(    1) amplitude = -0.0994
    X: D(   83) --> V(    9) amplitude =  0.0865
    X: D(   84) --> V(    1) amplitude =  0.9043
    Y: D(   84) --> V(    1) amplitude =  0.0809
    X: D(   84) --> V(    2) amplitude = -0.2015
    X: D(   84) --> V(    4) amplitude = -0.1213
    X: D(   84) --> V(   12) amplitude = -0.1121
    X: D(   85) --> V(    1) amplitude = -0.1114
    X: D(   85) --> V(    9) amplitude = -0.0902
    X: D(   86) --> V(    9) amplitude =  0.2105
    X: D(   86) --> V(   12) amplitude =  0.0962

 Excited state   5: excitation energy (eV) =        3.5091
 Total energy for state   5:                 -1182.59195290 au
    Multiplicity: Triplet
    Trans. Mom.:  0.0000 X   0.0000 Y   0.0000 Z
    Strength   :     0.0000000000
    X: D(   81) --> V(   30) amplitude = -0.0760
    X: D(   83) --> V(    1) amplitude =  0.0825
    X: D(   83) --> V(    2) amplitude = -0.2489
    X: D(   83) --> V(    4) amplitude =  0.0997
    X: D(   84) --> V(    9) amplitude =  0.0956
    X: D(   85) --> V(    1) amplitude = -0.5027
    X: D(   85) --> V(    2) amplitude =  0.1664
    X: D(   85) --> V(   12) amplitude = -0.1146
    X: D(   86) --> V(    2) amplitude =  0.7471

 Excited state   6: excitation energy (eV) =        3.5123
 Total energy for state   6:                 -1182.59183493 au
    Multiplicity: Singlet
    Trans. Mom.: -0.1869 X  -0.2440 Y  -0.0202 Z
    Strength   :     0.0081634165
    X: D(   84) --> V(    1) amplitude =  0.9328
    X: D(   84) --> V(    2) amplitude = -0.1173
    X: D(   84) --> V(    4) amplitude = -0.0769
    X: D(   85) --> V(    1) amplitude = -0.3118

 Excited state   7: excitation energy (eV) =        3.5319
 Total energy for state   7:                 -1182.59111522 au
    Multiplicity: Triplet
    Trans. Mom.:  0.0000 X   0.0000 Y   0.0000 Z
    Strength   :     0.0000000000
    X: D(   82) --> V(    1) amplitude =  0.8992
    X: D(   82) --> V(    2) amplitude = -0.2705
    X: D(   82) --> V(    4) amplitude = -0.1585
    X: D(   82) --> V(    9) amplitude =  0.1065
    X: D(   82) --> V(   12) amplitude = -0.1990
    X: D(   82) --> V(   18) amplitude = -0.1203
    X: D(   82) --> V(   30) amplitude =  0.0770

 Excited state   8: excitation energy (eV) =        3.6413
 Total energy for state   8:                 -1182.58709278 au
    Multiplicity: Triplet
    Trans. Mom.:  0.0000 X   0.0000 Y   0.0000 Z
    Strength   :     0.0000000000
    X: D(   79) --> V(    1) amplitude = -0.1052
    X: D(   81) --> V(    1) amplitude =  0.2203
    X: D(   83) --> V(    1) amplitude =  0.7096
    X: D(   83) --> V(    4) amplitude =  0.2451
    X: D(   84) --> V(    4) amplitude =  0.0756
    X: D(   84) --> V(    9) amplitude =  0.1395
    X: D(   85) --> V(    1) amplitude =  0.2002
    X: D(   85) --> V(    2) amplitude =  0.2132
    X: D(   85) --> V(    4) amplitude =  0.3725
    X: D(   85) --> V(   12) amplitude = -0.1200
    X: D(   86) --> V(    2) amplitude = -0.1144
    X: D(   86) --> V(    9) amplitude =  0.1287
    X: D(   86) --> V(   12) amplitude = -0.1763
    X: D(   86) --> V(   18) amplitude = -0.0779

 Excited state   9: excitation energy (eV) =        3.7132
 Total energy for state   9:                 -1182.58445318 au
    Multiplicity: Singlet
    Trans. Mom.: -0.3125 X  -0.0056 Y   0.1746 Z
    Strength   :     0.0116584254
    X: D(   83) --> V(    1) amplitude =  0.0805
    X: D(   84) --> V(    1) amplitude =  0.3084
    X: D(   85) --> V(    1) amplitude =  0.9187
    X: D(   85) --> V(    2) amplitude =  0.1052
    X: D(   86) --> V(    1) amplitude = -0.1001
    X: D(   86) --> V(    2) amplitude =  0.1102

 Excited state  10: excitation energy (eV) =        3.8739
 Total energy for state  10:                 -1182.57854578 au
    Multiplicity: Singlet
    Trans. Mom.:  0.0022 X  -0.0007 Y  -0.0014 Z
    Strength   :     0.0000007181
    X: D(   82) --> V(    1) amplitude =  0.9205
    X: D(   82) --> V(    2) amplitude = -0.2505
    X: D(   82) --> V(    4) amplitude = -0.1467
    X: D(   82) --> V(    9) amplitude =  0.0944
    X: D(   82) --> V(   12) amplitude = -0.1776
    X: D(   82) --> V(   18) amplitude = -0.0938

 Excited state  11: excitation energy (eV) =        4.1036
 Total energy for state  11:                 -1182.57010476 au
    Multiplicity: Triplet
    Trans. Mom.:  0.0000 X   0.0000 Y   0.0000 Z
    Strength   :     0.0000000000
    X: D(   75) --> V(    1) amplitude =  0.0754
    X: D(   75) --> V(    2) amplitude =  0.0823
    X: D(   79) --> V(    1) amplitude = -0.1921
    X: D(   80) --> V(    1) amplitude =  0.1447
    X: D(   81) --> V(    1) amplitude = -0.2106
    X: D(   81) --> V(    2) amplitude = -0.1307
    X: D(   81) --> V(    4) amplitude = -0.1323
    X: D(   83) --> V(    1) amplitude =  0.3868
    X: D(   83) --> V(    2) amplitude =  0.2962
    X: D(   83) --> V(    4) amplitude = -0.1947
    X: D(   83) --> V(   30) amplitude = -0.0853
    X: D(   84) --> V(    9) amplitude =  0.1638
    X: D(   84) --> V(   12) amplitude =  0.0874
    X: D(   85) --> V(    2) amplitude =  0.3400
    X: D(   85) --> V(    4) amplitude = -0.5214
    X: D(   85) --> V(   12) amplitude =  0.0945
    X: D(   86) --> V(    2) amplitude =  0.0770
    X: D(   86) --> V(    4) amplitude = -0.1063
    X: D(   86) --> V(    9) amplitude = -0.0905
    X: D(   86) --> V(   12) amplitude =  0.2252

 Excited state  12: excitation energy (eV) =        4.3131
 Total energy for state  12:                 -1182.56240492 au
    Multiplicity: Singlet
    Trans. Mom.: -0.5766 X  -0.0060 Y   0.3342 Z
    Strength   :     0.0469447283
    X: D(   83) --> V(    1) amplitude =  0.2663
    X: D(   83) --> V(    4) amplitude =  0.0817
    X: D(   85) --> V(    1) amplitude = -0.1557
    X: D(   85) --> V(    2) amplitude =  0.1189
    X: D(   86) --> V(    2) amplitude =  0.9158
    X: D(   86) --> V(    4) amplitude = -0.1006
    X: D(   86) --> V(    9) amplitude = -0.0741

 Excited state  13: excitation energy (eV) =        4.5030
 Total energy for state  13:                 -1182.55542661 au
    Multiplicity: Singlet
    Trans. Mom.:  0.6988 X  -0.1481 Y  -0.4804 Z
    Strength   :     0.0817521369
    X: D(   81) --> V(    1) amplitude =  0.1059
    X: D(   83) --> V(    1) amplitude =  0.8085
    X: D(   83) --> V(    2) amplitude =  0.1717
    X: D(   85) --> V(    2) amplitude =  0.3262
    X: D(   85) --> V(    4) amplitude = -0.0857
    X: D(   86) --> V(    2) amplitude = -0.3180
    X: D(   86) --> V(    4) amplitude = -0.2212

 Excited state  14: excitation energy (eV) =        4.8965
 Total energy for state  14:                 -1182.54096683 au
    Multiplicity: Singlet
    Trans. Mom.: -0.0268 X   0.0274 Y  -0.0671 Z
    Strength   :     0.0007164055
    X: D(   85) --> V(    5) amplitude = -0.0923
    X: D(   86) --> V(    3) amplitude =  0.8004
    X: D(   86) --> V(    5) amplitude =  0.4154
    X: D(   86) --> V(    6) amplitude = -0.1882
    X: D(   86) --> V(   10) amplitude = -0.2726
    X: D(   86) --> V(   13) amplitude = -0.0860
    X: D(   86) --> V(   15) amplitude = -0.1180

 ---------------------------------------------------

                    Orbital Energies (a.u.)
 --------------------------------------------------------------

 Alpha MOs
 -- Occupied --
-19.2908 -19.2467 -19.2465 -19.2441 -19.2310 -19.2285 -19.1639 -10.3644
-10.3440 -10.3400 -10.3391 -10.3368 -10.3206 -10.3063 -10.3030 -10.2892
-10.2883 -10.2841 -10.2769 -10.2699 -10.2582 -10.2542 -10.2533 -10.2532
 -1.2190  -1.1627  -1.1615  -1.1570  -1.1502  -1.1437  -1.0813  -0.9700
 -0.9450  -0.9164  -0.8815  -0.8446  -0.8388  -0.8250  -0.7897  -0.7819
 -0.7589  -0.7457  -0.7176  -0.6958  -0.6821  -0.6590  -0.6449  -0.6321
 -0.6225  -0.6032  -0.5894  -0.5725  -0.5705  -0.5671  -0.5594  -0.5498
 -0.5452  -0.5397  -0.5354  -0.5208  -0.5147  -0.5138  -0.5026  -0.4948
 -0.4923  -0.4834  -0.4810  -0.4771  -0.4761  -0.4697  -0.4562  -0.4511
 -0.4362  -0.4254  -0.4223  -0.4123  -0.4075  -0.4001  -0.3955  -0.3787
 -0.3599  -0.3190  -0.3169  -0.2910  -0.2862  -0.2328

                    Cartesian Multipole Moments
                  LMN = < X^L Y^M Z^N >

 Total job time:  10379.30s(wall), 148616.03s(cpu)
        *  Thank you very much for using Q-Chem.  Have a nice day.  *
