 Q-Chem 6.2, Q-Chem, Inc., Pleasanton, CA (2024)
 Q-Chem 6.2.0 for Intel X86 EM64T Linux

User input:
--------------------------------------------------------------
$comment
TDDFT calculation of pelargonidin Q2 structure
nprocs=16
mem=64gb
$end

$molecule
0 1
C   -4.4389280    0.3881003   -1.0445224
C   -4.6466722   -0.4272419    0.0868204
C   -3.7635286   -0.3837454    1.1371038
C   -2.6295775    0.4812120    1.0973850
C   -2.4778432    1.2715421   -0.0586227
C   -3.3575837    1.2445583   -1.1333475
C   -1.6744916    0.5925991    2.1075427
C   -0.5635299    1.4602528    2.0318633
C   -0.4814680    2.2404553    0.8246676
O   -1.4228127    2.1047766   -0.1284281
C    0.5383392    3.2003137    0.4649714
C    1.4941824    3.6623469    1.3922266
C    2.4433486    4.6010153    1.0310020
C    2.4731458    5.0992437   -0.2701133
C    1.5411093    4.6529531   -1.2109316
C    0.5911027    3.7242598   -0.8464418
O   -5.3074887    0.3561732   -2.0951311
H   -5.5063445   -1.0864374    0.1234902
O   -3.9067768   -1.1417608    2.2570764
H   -3.1993975    1.8693633   -2.0005692
H   -1.7667177   -0.0126857    3.0000742
O    0.3107330    1.5332337    2.9695008
H    1.4748221    3.2823466    2.3997142
H    3.1665374    4.9550378    1.7562953
O    3.3904134    6.0217625   -0.6780004
H    1.5757348    5.0415515   -2.2203778
H   -0.1187505    3.3895813   -1.5883471
H   -6.0222434   -0.2738655   -1.9239494
H   -4.6999377   -1.6928141    2.1884685
H    3.9773535    6.2548821    0.0561505
$end

$rem
BASIS  =  def2-ma-TZVP
MEM_STATIC  =  2000
MEM_TOTAL  =  64000
METHOD  =  CAM-B3LYP
SOLVENT_METHOD = pcm
SYMMETRY_IGNORE  =  1
CIS_N_ROOTS = 7
CIS_SINGLETS = true
CIS_TRIPLETS = true
CISTR_PRINT = true
RPA = true
PRINT_ORBITALS = true
SCF_PRINT = 1
SCF_FINAL_PRINT = 2
PRINT_GENERAL_BASIS = true
CISTR_PRINT = true
PRINT_RADII_GYRE = true
MULTIPOLE_ORDER = 5
CIS_AMPL_PRINT = 5
CIS_AMPL_ANAL = true
STATE_ANALYSIS = true
$end

$pcm
Theory   CPCM
Method   SWIG
Solver   Inversion
Radii    Bondi
$end

$solvent
Dielectric         78.39
OpticalDielectric  1.777849
$end

--------------------------------------------------------------

             Standard Nuclear Orientation (Angstroms)
    I     Atom           X                Y                Z
 ----------------------------------------------------------------
    1      C      -4.4389280000     0.3881003000    -1.0445224000
    2      C      -4.6466722000    -0.4272419000     0.0868204000
    3      C      -3.7635286000    -0.3837454000     1.1371038000
    4      C      -2.6295775000     0.4812120000     1.0973850000
    5      C      -2.4778432000     1.2715421000    -0.0586227000
    6      C      -3.3575837000     1.2445583000    -1.1333475000
    7      C      -1.6744916000     0.5925991000     2.1075427000
    8      C      -0.5635299000     1.4602528000     2.0318633000
    9      C      -0.4814680000     2.2404553000     0.8246676000
   10      O      -1.4228127000     2.1047766000    -0.1284281000
   11      C       0.5383392000     3.2003137000     0.4649714000
   12      C       1.4941824000     3.6623469000     1.3922266000
   13      C       2.4433486000     4.6010153000     1.0310020000
   14      C       2.4731458000     5.0992437000    -0.2701133000
   15      C       1.5411093000     4.6529531000    -1.2109316000
   16      C       0.5911027000     3.7242598000    -0.8464418000
   17      O      -5.3074887000     0.3561732000    -2.0951311000
   18      H      -5.5063445000    -1.0864374000     0.1234902000
   19      O      -3.9067768000    -1.1417608000     2.2570764000
   20      H      -3.1993975000     1.8693633000    -2.0005692000
   21      H      -1.7667177000    -0.0126857000     3.0000742000
   22      O       0.3107330000     1.5332337000     2.9695008000
   23      H       1.4748221000     3.2823466000     2.3997142000
   24      H       3.1665374000     4.9550378000     1.7562953000
   25      O       3.3904134000     6.0217625000    -0.6780004000
   26      H       1.5757348000     5.0415515000    -2.2203778000
   27      H      -0.1187505000     3.3895813000    -1.5883471000
   28      H      -6.0222434000    -0.2738655000    -1.9239494000
   29      H      -4.6999377000    -1.6928141000     2.1884685000
   30      H       3.9773535000     6.2548821000     0.0561505000
 ----------------------------------------------------------------

   15    -953.6692931627      7.12e-09  Convergence criterion met
 Total energy =  -953.66929316

             TDDFT Excitation Energies
 ---------------------------------------------------

 Excited state   1: excitation energy (eV) =        0.4408
 Total energy for state   1:                  -953.65309342 au
    Multiplicity: Triplet
    Trans. Mom.:  0.0000 X   0.0000 Y   0.0000 Z
    Strength   :     0.0000000000
    X: D(   58) --> V(    1) amplitude = -0.0882
    Y: D(   58) --> V(    1) amplitude = -0.0726
    X: D(   59) --> V(    1) amplitude = -0.1196
    Y: D(   59) --> V(    1) amplitude = -0.0988
    X: D(   65) --> V(    1) amplitude =  0.1057
    Y: D(   65) --> V(    1) amplitude =  0.0713
    X: D(   65) --> V(   10) amplitude =  0.0870
    X: D(   66) --> V(    3) amplitude = -0.0793
    X: D(   67) --> V(    1) amplitude = -0.1560
    Y: D(   67) --> V(    1) amplitude = -0.1069
    X: D(   67) --> V(    2) amplitude = -0.0730
    X: D(   67) --> V(   10) amplitude = -0.0879
    X: D(   69) --> V(    5) amplitude =  0.1168
    Y: D(   69) --> V(    5) amplitude =  0.0975
    X: D(   70) --> V(    1) amplitude =  1.2257
    Y: D(   70) --> V(    1) amplitude =  0.7562
    X: D(   70) --> V(    2) amplitude =  0.0754
    X: D(   70) --> V(   10) amplitude =  0.1032

 Excited state   2: excitation energy (eV) =        2.3164
 Total energy for state   2:                  -953.58416663 au
    Multiplicity: Singlet
    Trans. Mom.:  2.3130 X   1.9158 Y  -0.3266 Z
    Strength   :     0.5179531316
    X: D(   70) --> V(    1) amplitude =  0.9954
    Y: D(   70) --> V(    1) amplitude = -0.0970

 Excited state   3: excitation energy (eV) =        2.8028
 Total energy for state   3:                  -953.56629268 au
    Multiplicity: Triplet
    Trans. Mom.:  0.0000 X   0.0000 Y   0.0000 Z
    Strength   :     0.0000000000
    X: D(   64) --> V(    1) amplitude = -0.1071
    X: D(   65) --> V(   10) amplitude =  0.0797
    X: D(   66) --> V(    3) amplitude =  0.1563
    X: D(   67) --> V(    5) amplitude =  0.1786
    X: D(   69) --> V(    1) amplitude =  0.8023
    Y: D(   69) --> V(    1) amplitude =  0.0854
    X: D(   69) --> V(   10) amplitude = -0.1248
    X: D(   70) --> V(    2) amplitude =  0.3930
    Y: D(   70) --> V(    2) amplitude =  0.0769
    X: D(   70) --> V(    3) amplitude = -0.1747
    X: D(   70) --> V(    5) amplitude =  0.2047

 Excited state   4: excitation energy (eV) =        3.1012
 Total energy for state   4:                  -953.55532670 au
    Multiplicity: Triplet
    Trans. Mom.:  0.0000 X   0.0000 Y   0.0000 Z
    Strength   :     0.0000000000
    X: D(   68) --> V(    1) amplitude =  0.9780
    X: D(   68) --> V(   10) amplitude =  0.1302

 Excited state   5: excitation energy (eV) =        3.2608
 Total energy for state   5:                  -953.54945935 au
    Multiplicity: Singlet
    Trans. Mom.:  0.0303 X   0.0353 Y  -0.0171 Z
    Strength   :     0.0001960978
    X: D(   68) --> V(    1) amplitude =  0.9795
    X: D(   68) --> V(   10) amplitude =  0.1193
    X: D(   69) --> V(    1) amplitude =  0.1053

 Excited state   6: excitation energy (eV) =        3.3919
 Total energy for state   6:                  -953.54464194 au
    Multiplicity: Triplet
    Trans. Mom.:  0.0000 X   0.0000 Y   0.0000 Z
    Strength   :     0.0000000000
    X: D(   59) --> V(    1) amplitude = -0.0804
    X: D(   65) --> V(    1) amplitude =  0.2479
    X: D(   65) --> V(    2) amplitude =  0.0973
    X: D(   66) --> V(    1) amplitude =  0.2428
    X: D(   66) --> V(    3) amplitude =  0.1294
    X: D(   67) --> V(    1) amplitude = -0.6776
    X: D(   67) --> V(    2) amplitude =  0.0888
    X: D(   67) --> V(    5) amplitude = -0.0784
    X: D(   69) --> V(    1) amplitude = -0.1093
    X: D(   69) --> V(    3) amplitude =  0.1085
    X: D(   69) --> V(    5) amplitude = -0.3658
    X: D(   70) --> V(    1) amplitude = -0.0990
    X: D(   70) --> V(    2) amplitude =  0.1423
    X: D(   70) --> V(    5) amplitude = -0.1807
    X: D(   70) --> V(    9) amplitude = -0.0777
    X: D(   70) --> V(   10) amplitude =  0.3069

 Excited state   7: excitation energy (eV) =        3.4536
 Total energy for state   7:                  -953.54237439 au
    Multiplicity: Triplet
    Trans. Mom.:  0.0000 X   0.0000 Y   0.0000 Z
    Strength   :     0.0000000000
    X: D(   65) --> V(    1) amplitude = -0.0913
    X: D(   65) --> V(   28) amplitude = -0.0766
    X: D(   67) --> V(    1) amplitude =  0.1051
    X: D(   67) --> V(    2) amplitude = -0.1244
    X: D(   69) --> V(    1) amplitude = -0.4103
    X: D(   70) --> V(    2) amplitude =  0.8175
    Y: D(   70) --> V(    2) amplitude =  0.0736
    X: D(   70) --> V(    3) amplitude = -0.1761
    X: D(   70) --> V(   10) amplitude = -0.1230
    X: D(   70) --> V(   13) amplitude = -0.0800
    X: D(   70) --> V(   28) amplitude = -0.1257

 Excited state   8: excitation energy (eV) =        3.7477
 Total energy for state   8:                  -953.53156738 au
    Multiplicity: Singlet
    Trans. Mom.: -0.9603 X  -0.7752 Y   0.1015 Z
    Strength   :     0.1407928123
    X: D(   64) --> V(    1) amplitude = -0.0798
    X: D(   67) --> V(    1) amplitude =  0.1656
    X: D(   68) --> V(    1) amplitude = -0.1030
    X: D(   69) --> V(    1) amplitude =  0.9384
    X: D(   70) --> V(    2) amplitude =  0.2000

 Excited state   9: excitation energy (eV) =        3.7817
 Total energy for state   9:                  -953.53031739 au
    Multiplicity: Triplet
    Trans. Mom.:  0.0000 X   0.0000 Y   0.0000 Z
    Strength   :     0.0000000000
    X: D(   61) --> V(    1) amplitude = -0.1236
    X: D(   62) --> V(    1) amplitude =  0.1160
    X: D(   64) --> V(    1) amplitude = -0.1903
    X: D(   65) --> V(    1) amplitude =  0.7531
    X: D(   65) --> V(    3) amplitude = -0.0889
    X: D(   65) --> V(    5) amplitude =  0.1338
    X: D(   66) --> V(    1) amplitude = -0.3214
    X: D(   66) --> V(    3) amplitude = -0.1392
    X: D(   67) --> V(    1) amplitude =  0.1872
    X: D(   67) --> V(    2) amplitude = -0.0710
    X: D(   69) --> V(    1) amplitude =  0.0757
    X: D(   69) --> V(    2) amplitude =  0.1209
    X: D(   69) --> V(   10) amplitude =  0.1120
    X: D(   70) --> V(    3) amplitude =  0.1008
    X: D(   70) --> V(    5) amplitude = -0.2534
    X: D(   70) --> V(   28) amplitude = -0.1136

 Excited state  10: excitation energy (eV) =        3.9573
 Total energy for state  10:                  -953.52386637 au
    Multiplicity: Triplet
    Trans. Mom.:  0.0000 X   0.0000 Y   0.0000 Z
    Strength   :     0.0000000000
    X: D(   65) --> V(    1) amplitude =  0.2628
    X: D(   66) --> V(    1) amplitude =  0.7268
    X: D(   66) --> V(    2) amplitude = -0.1003
    X: D(   66) --> V(    3) amplitude =  0.2458
    X: D(   66) --> V(    5) amplitude = -0.1345
    X: D(   66) --> V(   10) amplitude = -0.1423
    X: D(   67) --> V(    1) amplitude =  0.4370
    X: D(   67) --> V(    3) amplitude =  0.1194
    X: D(   70) --> V(    2) amplitude = -0.0778
    X: D(   70) --> V(    3) amplitude = -0.1757

 Excited state  11: excitation energy (eV) =        4.3453
 Total energy for state  11:                  -953.50960471 au
    Multiplicity: Singlet
    Trans. Mom.:  1.0820 X   0.7804 Y   0.0579 Z
    Strength   :     0.1898263653
    X: D(   64) --> V(    1) amplitude =  0.0757
    X: D(   65) --> V(    1) amplitude = -0.2820
    X: D(   66) --> V(    1) amplitude =  0.1426
    X: D(   66) --> V(    2) amplitude = -0.0739
    X: D(   67) --> V(    1) amplitude =  0.8431
    X: D(   69) --> V(    1) amplitude = -0.1543
    X: D(   69) --> V(    3) amplitude = -0.1432
    X: D(   70) --> V(    2) amplitude =  0.2092
    X: D(   70) --> V(    3) amplitude =  0.2391

 Excited state  12: excitation energy (eV) =        4.4728
 Total energy for state  12:                  -953.50492083 au
    Multiplicity: Singlet
    Trans. Mom.:  0.0455 X  -0.3089 Y   0.5679 Z
    Strength   :     0.0460271845
    X: D(   64) --> V(    1) amplitude = -0.0753
    X: D(   65) --> V(    1) amplitude =  0.5100
    X: D(   66) --> V(    1) amplitude =  0.4263
    X: D(   66) --> V(    5) amplitude = -0.0863
    X: D(   67) --> V(    1) amplitude = -0.1600
    X: D(   67) --> V(    3) amplitude =  0.0819
    X: D(   67) --> V(   10) amplitude = -0.0758
    X: D(   69) --> V(    1) amplitude = -0.0929
    X: D(   69) --> V(    3) amplitude = -0.1500
    X: D(   70) --> V(    2) amplitude =  0.6256
    X: D(   70) --> V(    3) amplitude =  0.2065
    X: D(   70) --> V(    5) amplitude = -0.1182

 Excited state  13: excitation energy (eV) =        4.4932
 Total energy for state  13:                  -953.50416980 au
    Multiplicity: Singlet
    Trans. Mom.:  0.9186 X   0.4053 Y   0.3909 Z
    Strength   :     0.1277921541
    X: D(   66) --> V(    1) amplitude = -0.6651
    X: D(   67) --> V(    1) amplitude =  0.0939
    X: D(   67) --> V(    3) amplitude = -0.0820
    X: D(   69) --> V(    1) amplitude = -0.2195
    X: D(   69) --> V(    2) amplitude =  0.1800
    X: D(   70) --> V(    2) amplitude =  0.4882
    X: D(   70) --> V(    3) amplitude = -0.3538
    X: D(   70) --> V(    5) amplitude = -0.2192

 Excited state  14: excitation energy (eV) =        4.9258
 Total energy for state  14:                  -953.48827326 au
    Multiplicity: Singlet
    Trans. Mom.: -0.5166 X  -0.1926 Y  -0.4661 Z
    Strength   :     0.0629082423
    X: D(   65) --> V(    1) amplitude = -0.1797
    X: D(   66) --> V(    1) amplitude = -0.3430
    X: D(   67) --> V(    1) amplitude = -0.2127
    X: D(   70) --> V(    2) amplitude =  0.0714
    X: D(   70) --> V(    3) amplitude =  0.6843
    X: D(   70) --> V(    4) amplitude =  0.4549
    X: D(   70) --> V(    5) amplitude = -0.0905
    X: D(   70) --> V(    6) amplitude = -0.0950
    X: D(   70) --> V(    7) amplitude = -0.1101
    X: D(   70) --> V(    8) amplitude =  0.2101
    X: D(   70) --> V(   11) amplitude = -0.1283

 ---------------------------------------------------

                    Orbital Energies (a.u.)
 --------------------------------------------------------------

 Alpha MOs
 -- Occupied --
-19.3045 -19.2477 -19.2452 -19.2422 -19.1347 -10.3522 -10.3443 -10.3405
-10.3381 -10.3279 -10.3145 -10.2810 -10.2742 -10.2717 -10.2655 -10.2617
-10.2612 -10.2546 -10.2545 -10.2543  -1.2296  -1.1628  -1.1579  -1.1547
 -1.0628  -0.9710  -0.9536  -0.9013  -0.8864  -0.8467  -0.8410  -0.8187
 -0.7654  -0.7478  -0.7124  -0.7071  -0.6968  -0.6724  -0.6362  -0.6285
 -0.6162  -0.5987  -0.5819  -0.5734  -0.5642  -0.5478  -0.5261  -0.5216
 -0.5144  -0.5046  -0.5039  -0.4995  -0.4954  -0.4863  -0.4842  -0.4739
 -0.4599  -0.4511  -0.4485  -0.4442  -0.4290  -0.4284  -0.4135  -0.4002
 -0.3366  -0.3281  -0.3246  -0.3047  -0.2978  -0.2387

                    Cartesian Multipole Moments
                  LMN = < X^L Y^M Z^N >

 Total job time:  6193.62s(wall), 88903.91s(cpu)
        *  Thank you very much for using Q-Chem.  Have a nice day.  *
