 Q-Chem 6.2, Q-Chem, Inc., Pleasanton, CA (2024)
 Q-Chem 6.2.0 for Intel X86 EM64T Linux

User input:
--------------------------------------------------------------
$comment
TDDFT calculation of pelargonidin Q4 structure
nprocs=16
mem=64gb
$end

$molecule
0 1
C   -4.5552329    0.4480342   -1.0310671
C   -4.6816914   -0.4109288    0.1270995
C   -3.7675898   -0.4013623    1.1341965
C   -2.6297774    0.4717426    1.0822966
C   -2.5192898    1.3143204   -0.0649313
C   -3.4236150    1.3203269   -1.0882955
C   -1.6511989    0.5434821    2.0463715
C   -0.5691741    1.4246532    1.9203796
C   -0.4808956    2.2436348    0.8093293
O   -1.4549872    2.1604817   -0.1315513
C    0.5530444    3.2075762    0.4679146
C    1.3875574    3.7914204    1.4364441
C    2.3442986    4.7252459    1.0809749
C    2.4988473    5.0923887   -0.2550112
C    1.6829020    4.5241754   -1.2338214
C    0.7222454    3.6007663   -0.8735187
O   -5.4282631    0.4188790   -1.9533609
H   -5.5378614   -1.0736553    0.1776290
O   -3.8526308   -1.1930931    2.2402241
H   -3.2950016    1.9791276   -1.9362925
H   -1.6974580   -0.0932629    2.9214308
O    0.4166987    1.4666555    2.8673442
H    1.2755248    3.5342842    2.4772591
H    2.9734304    5.1784720    1.8377929
O    3.4313867    6.0039495   -0.6581021
H    1.8121380    4.8112229   -2.2691645
H    0.1002597    3.1666787   -1.6428906
H   -4.6486075   -1.7422595    2.1913081
H    0.2304956    0.8167948    3.5598012
H    3.9306756    6.3291289    0.1050708
$end

$rem
BASIS  =  def2-ma-TZVP
MEM_STATIC  =  2000
MEM_TOTAL  =  64000
METHOD  =  CAM-B3LYP
SOLVENT_METHOD = pcm
SYMMETRY_IGNORE  =  1
CIS_N_ROOTS = 7
CIS_SINGLETS = true
CIS_TRIPLETS = true
CISTR_PRINT = true
RPA = true
PRINT_ORBITALS = true
SCF_PRINT = 1
SCF_FINAL_PRINT = 2
PRINT_GENERAL_BASIS = true
CISTR_PRINT = true
PRINT_RADII_GYRE = true
MULTIPOLE_ORDER = 5
CIS_AMPL_PRINT = 5
CIS_AMPL_ANAL = true
STATE_ANALYSIS = true
$end

$pcm
Theory   CPCM
Method   SWIG
Solver   Inversion
Radii    Bondi
$end

$solvent
Dielectric         78.39
OpticalDielectric  1.777849
$end

--------------------------------------------------------------

             Standard Nuclear Orientation (Angstroms)
    I     Atom           X                Y                Z
 ----------------------------------------------------------------
    1      C      -4.5552329000     0.4480342000    -1.0310671000
    2      C      -4.6816914000    -0.4109288000     0.1270995000
    3      C      -3.7675898000    -0.4013623000     1.1341965000
    4      C      -2.6297774000     0.4717426000     1.0822966000
    5      C      -2.5192898000     1.3143204000    -0.0649313000
    6      C      -3.4236150000     1.3203269000    -1.0882955000
    7      C      -1.6511989000     0.5434821000     2.0463715000
    8      C      -0.5691741000     1.4246532000     1.9203796000
    9      C      -0.4808956000     2.2436348000     0.8093293000
   10      O      -1.4549872000     2.1604817000    -0.1315513000
   11      C       0.5530444000     3.2075762000     0.4679146000
   12      C       1.3875574000     3.7914204000     1.4364441000
   13      C       2.3442986000     4.7252459000     1.0809749000
   14      C       2.4988473000     5.0923887000    -0.2550112000
   15      C       1.6829020000     4.5241754000    -1.2338214000
   16      C       0.7222454000     3.6007663000    -0.8735187000
   17      O      -5.4282631000     0.4188790000    -1.9533609000
   18      H      -5.5378614000    -1.0736553000     0.1776290000
   19      O      -3.8526308000    -1.1930931000     2.2402241000
   20      H      -3.2950016000     1.9791276000    -1.9362925000
   21      H      -1.6974580000    -0.0932629000     2.9214308000
   22      O       0.4166987000     1.4666555000     2.8673442000
   23      H       1.2755248000     3.5342842000     2.4772591000
   24      H       2.9734304000     5.1784720000     1.8377929000
   25      O       3.4313867000     6.0039495000    -0.6581021000
   26      H       1.8121380000     4.8112229000    -2.2691645000
   27      H       0.1002597000     3.1666787000    -1.6428906000
   28      H      -4.6486075000    -1.7422595000     2.1913081000
   29      H       0.2304956000     0.8167948000     3.5598012000
   30      H       3.9306756000     6.3291289000     0.1050708000
 ----------------------------------------------------------------

   16    -953.6727649833      6.17e-09  Convergence criterion met
 Total energy =  -953.67276498

             TDDFT Excitation Energies
 ---------------------------------------------------

 Excited state   1: excitation energy (eV) =        1.3211
 Total energy for state   1:                  -953.62421542 au
    Multiplicity: Triplet
    Trans. Mom.:  0.0000 X   0.0000 Y   0.0000 Z
    Strength   :     0.0000000000
    X: D(   64) --> V(    1) amplitude = -0.0904
    X: D(   65) --> V(    1) amplitude =  0.1173
    X: D(   65) --> V(   10) amplitude =  0.0734
    X: D(   68) --> V(    1) amplitude = -0.0878
    X: D(   68) --> V(    2) amplitude = -0.0981
    X: D(   69) --> V(    2) amplitude =  0.0790
    X: D(   70) --> V(    1) amplitude =  1.0007
    Y: D(   70) --> V(    1) amplitude =  0.2639

 Excited state   2: excitation energy (eV) =        2.6165
 Total energy for state   2:                  -953.57660925 au
    Multiplicity: Singlet
    Trans. Mom.: -2.5319 X  -1.6731 Y  -0.2809 Z
    Strength   :     0.5954446477
    X: D(   68) --> V(    1) amplitude =  0.0866
    X: D(   69) --> V(    1) amplitude =  0.1548
    X: D(   70) --> V(    1) amplitude =  0.9774

 Excited state   3: excitation energy (eV) =        2.8013
 Total energy for state   3:                  -953.56982065 au
    Multiplicity: Triplet
    Trans. Mom.:  0.0000 X   0.0000 Y   0.0000 Z
    Strength   :     0.0000000000
    X: D(   64) --> V(    1) amplitude =  0.1144
    X: D(   66) --> V(    3) amplitude =  0.1192
    X: D(   68) --> V(    1) amplitude =  0.2683
    X: D(   68) --> V(    2) amplitude =  0.1178
    X: D(   68) --> V(    7) amplitude = -0.2214
    X: D(   69) --> V(    1) amplitude =  0.7948
    Y: D(   69) --> V(    1) amplitude =  0.0754
    X: D(   69) --> V(   10) amplitude = -0.0878
    X: D(   70) --> V(    2) amplitude =  0.4072
    Y: D(   70) --> V(    2) amplitude =  0.0800
    X: D(   70) --> V(    7) amplitude =  0.0904

 Excited state   4: excitation energy (eV) =        2.9997
 Total energy for state   4:                  -953.56252638 au
    Multiplicity: Triplet
    Trans. Mom.:  0.0000 X   0.0000 Y   0.0000 Z
    Strength   :     0.0000000000
    X: D(   65) --> V(    1) amplitude =  0.1926
    X: D(   66) --> V(    3) amplitude = -0.1641
    X: D(   68) --> V(    1) amplitude =  0.7644
    Y: D(   68) --> V(    1) amplitude =  0.0887
    X: D(   68) --> V(    7) amplitude = -0.0835
    X: D(   68) --> V(   10) amplitude = -0.1372
    X: D(   69) --> V(    2) amplitude =  0.1028
    X: D(   69) --> V(    7) amplitude = -0.2543
    X: D(   70) --> V(    2) amplitude = -0.4508
    X: D(   70) --> V(    3) amplitude =  0.0783

 Excited state   5: excitation energy (eV) =        3.6393
 Total energy for state   5:                  -953.53902320 au
    Multiplicity: Triplet
    Trans. Mom.:  0.0000 X   0.0000 Y   0.0000 Z
    Strength   :     0.0000000000
    X: D(   61) --> V(    1) amplitude =  0.0978
    X: D(   62) --> V(    1) amplitude = -0.0720
    X: D(   64) --> V(    1) amplitude =  0.0955
    X: D(   65) --> V(    1) amplitude = -0.3050
    X: D(   65) --> V(    2) amplitude =  0.0912
    X: D(   65) --> V(    7) amplitude = -0.0907
    X: D(   66) --> V(    3) amplitude = -0.2383
    X: D(   68) --> V(    1) amplitude =  0.2102
    X: D(   68) --> V(    2) amplitude = -0.1893
    X: D(   69) --> V(    1) amplitude = -0.3129
    X: D(   69) --> V(    2) amplitude =  0.3562
    X: D(   69) --> V(    3) amplitude = -0.0806
    X: D(   70) --> V(    2) amplitude =  0.4560
    X: D(   70) --> V(    7) amplitude =  0.3979
    X: D(   70) --> V(   10) amplitude = -0.2365
    X: D(   70) --> V(   12) amplitude =  0.0746
    X: D(   70) --> V(   17) amplitude = -0.0968

 Excited state   6: excitation energy (eV) =        3.7070
 Total energy for state   6:                  -953.53653474 au
    Multiplicity: Singlet
    Trans. Mom.:  1.2369 X   0.8198 Y   0.1179 Z
    Strength   :     0.2012477815
    X: D(   65) --> V(    1) amplitude = -0.1342
    X: D(   68) --> V(    1) amplitude =  0.2935
    X: D(   68) --> V(    2) amplitude =  0.0995
    X: D(   69) --> V(    1) amplitude =  0.9069
    X: D(   69) --> V(    2) amplitude =  0.0776
    X: D(   70) --> V(    1) amplitude = -0.1615
    X: D(   70) --> V(    2) amplitude =  0.1328

 Excited state   7: excitation energy (eV) =        3.7462
 Total energy for state   7:                  -953.53509472 au
    Multiplicity: Triplet
    Trans. Mom.:  0.0000 X   0.0000 Y   0.0000 Z
    Strength   :     0.0000000000
    X: D(   67) --> V(    1) amplitude =  0.8778
    X: D(   67) --> V(    2) amplitude =  0.3346
    X: D(   67) --> V(    3) amplitude = -0.0798
    X: D(   67) --> V(   10) amplitude = -0.2566
    X: D(   67) --> V(   27) amplitude =  0.1131

 Excited state   8: excitation energy (eV) =        3.9085
 Total energy for state   8:                  -953.52913176 au
    Multiplicity: Triplet
    Trans. Mom.:  0.0000 X   0.0000 Y   0.0000 Z
    Strength   :     0.0000000000
    X: D(   54) --> V(    1) amplitude =  0.0791
    X: D(   64) --> V(    1) amplitude =  0.1428
    X: D(   65) --> V(    1) amplitude =  0.5041
    X: D(   65) --> V(    2) amplitude =  0.1314
    X: D(   66) --> V(    2) amplitude =  0.0793
    X: D(   66) --> V(    3) amplitude =  0.3472
    X: D(   68) --> V(    1) amplitude =  0.2323
    X: D(   68) --> V(    2) amplitude =  0.1263
    X: D(   68) --> V(    7) amplitude = -0.1020
    X: D(   68) --> V(   10) amplitude =  0.0975
    X: D(   69) --> V(    1) amplitude = -0.3991
    X: D(   69) --> V(    2) amplitude = -0.2223
    X: D(   69) --> V(   10) amplitude = -0.0903
    X: D(   70) --> V(    2) amplitude =  0.4607
    X: D(   70) --> V(   10) amplitude =  0.0851

 Excited state   9: excitation energy (eV) =        4.0242
 Total energy for state   9:                  -953.52487993 au
    Multiplicity: Singlet
    Trans. Mom.:  0.0190 X  -0.0081 Y   0.0213 Z
    Strength   :     0.0000865825
    X: D(   67) --> V(    1) amplitude =  0.9093
    X: D(   67) --> V(    2) amplitude =  0.2964
    X: D(   67) --> V(    3) amplitude = -0.0708
    X: D(   67) --> V(   10) amplitude = -0.2170
    X: D(   67) --> V(   27) amplitude =  0.0880
    X: D(   68) --> V(    1) amplitude =  0.0958

 Excited state  10: excitation energy (eV) =        4.2149
 Total energy for state  10:                  -953.51787114 au
    Multiplicity: Triplet
    Trans. Mom.:  0.0000 X   0.0000 Y   0.0000 Z
    Strength   :     0.0000000000
    X: D(   61) --> V(    3) amplitude =  0.0776
    X: D(   64) --> V(    1) amplitude = -0.0827
    X: D(   65) --> V(    1) amplitude = -0.1001
    X: D(   66) --> V(    1) amplitude = -0.4849
    X: D(   66) --> V(    2) amplitude =  0.2309
    X: D(   66) --> V(    3) amplitude = -0.0854
    X: D(   66) --> V(    7) amplitude = -0.1277
    X: D(   66) --> V(   10) amplitude =  0.0804
    X: D(   68) --> V(    3) amplitude =  0.2991
    X: D(   69) --> V(    2) amplitude = -0.1177
    X: D(   69) --> V(    3) amplitude = -0.3819
    X: D(   70) --> V(    2) amplitude =  0.0850
    X: D(   70) --> V(    3) amplitude =  0.5934
    X: D(   70) --> V(    7) amplitude = -0.1013

 Excited state  11: excitation energy (eV) =        4.3596
 Total energy for state  11:                  -953.51255148 au
    Multiplicity: Singlet
    Trans. Mom.: -0.4521 X  -0.6729 Y   0.5526 Z
    Strength   :     0.1027960828
    X: D(   65) --> V(    1) amplitude =  0.0873
    X: D(   67) --> V(    1) amplitude = -0.0915
    X: D(   68) --> V(    1) amplitude =  0.8172
    X: D(   69) --> V(    1) amplitude = -0.3302
    X: D(   69) --> V(    2) amplitude =  0.1839
    X: D(   70) --> V(    2) amplitude =  0.3257
    X: D(   70) --> V(    7) amplitude =  0.1955

 Excited state  12: excitation energy (eV) =        4.6600
 Total energy for state  12:                  -953.50151462 au
    Multiplicity: Singlet
    Trans. Mom.: -0.1144 X   0.1500 Y  -0.3529 Z
    Strength   :     0.0182787982
    X: D(   66) --> V(    1) amplitude =  0.6952
    X: D(   66) --> V(    2) amplitude = -0.2307
    X: D(   66) --> V(    3) amplitude =  0.0708
    X: D(   66) --> V(    7) amplitude =  0.1249
    X: D(   68) --> V(    1) amplitude = -0.1058
    X: D(   68) --> V(    3) amplitude =  0.2062
    X: D(   69) --> V(    2) amplitude = -0.0797
    X: D(   69) --> V(    3) amplitude = -0.2490
    X: D(   70) --> V(    2) amplitude =  0.2687
    X: D(   70) --> V(    3) amplitude =  0.4794

 Excited state  13: excitation energy (eV) =        4.7949
 Total energy for state  13:                  -953.49655741 au
    Multiplicity: Singlet
    Trans. Mom.: -0.5604 X   0.6829 Y  -1.5543 Z
    Strength   :     0.3754596619
    X: D(   65) --> V(    1) amplitude =  0.1034
    X: D(   66) --> V(    1) amplitude = -0.2300
    X: D(   66) --> V(    2) amplitude =  0.0807
    X: D(   68) --> V(    1) amplitude = -0.3878
    X: D(   68) --> V(    7) amplitude = -0.1223
    X: D(   69) --> V(   10) amplitude = -0.0788
    X: D(   70) --> V(    2) amplitude =  0.8065
    X: D(   70) --> V(    3) amplitude = -0.1453
    X: D(   70) --> V(    7) amplitude =  0.2359

 Excited state  14: excitation energy (eV) =        5.1818
 Total energy for state  14:                  -953.48233632 au
    Multiplicity: Singlet
    Trans. Mom.:  0.3047 X   0.0033 Y   0.6642 Z
    Strength   :     0.0677951003
    X: D(   66) --> V(    1) amplitude = -0.5278
    X: D(   68) --> V(    3) amplitude =  0.1143
    X: D(   69) --> V(    3) amplitude = -0.1083
    X: D(   70) --> V(    3) amplitude =  0.6738
    X: D(   70) --> V(    4) amplitude =  0.4008
    X: D(   70) --> V(    8) amplitude =  0.1556
    X: D(   70) --> V(    9) amplitude = -0.0717
    X: D(   70) --> V(   11) amplitude = -0.1145

 ---------------------------------------------------

                    Orbital Energies (a.u.)
 --------------------------------------------------------------

 Alpha MOs
 -- Occupied --
-19.2947 -19.2452 -19.2448 -19.2411 -19.1539 -10.3564 -10.3451 -10.3363
-10.3354 -10.3272 -10.3205 -10.2995 -10.2851 -10.2750 -10.2664 -10.2662
-10.2564 -10.2549 -10.2455 -10.2366  -1.2201  -1.1597  -1.1591  -1.1535
 -1.0771  -0.9667  -0.9539  -0.9207  -0.8763  -0.8484  -0.8374  -0.8200
 -0.7644  -0.7519  -0.7134  -0.7114  -0.6943  -0.6481  -0.6389  -0.6282
 -0.6236  -0.6011  -0.5812  -0.5725  -0.5686  -0.5526  -0.5338  -0.5251
 -0.5096  -0.5070  -0.5054  -0.4986  -0.4915  -0.4885  -0.4808  -0.4691
 -0.4654  -0.4554  -0.4517  -0.4416  -0.4320  -0.4299  -0.4101  -0.3979
 -0.3569  -0.3287  -0.3142  -0.3091  -0.2979  -0.2499

                    Cartesian Multipole Moments
                  LMN = < X^L Y^M Z^N >

 Total job time:  6256.83s(wall), 90497.53s(cpu)
        *  Thank you very much for using Q-Chem.  Have a nice day.  *
