 Q-Chem 6.2, Q-Chem, Inc., Pleasanton, CA (2024)
 Q-Chem 6.2.0 for Intel X86 EM64T Linux

User input:
--------------------------------------------------------------
$comment
TDDFT calculation of pelargonidin Q3 structure
nprocs=16
mem=64gb
$end

$molecule
0 1
C   -4.4943845    0.4180708   -0.9766122
C   -4.6765787   -0.4303227    0.1066511
C   -3.7663505   -0.4577857    1.1873554
C   -2.6230453    0.4609618    1.0802027
C   -2.5033488    1.3003747   -0.0601816
C   -3.4076510    1.3018577   -1.0911759
C   -1.6419924    0.5426762    2.0426739
C   -0.5628120    1.4230115    1.9218602
C   -0.4748024    2.2416390    0.8062254
O   -1.4444624    2.1508845   -0.1320620
C    0.5561783    3.2078312    0.4652250
C    1.3876178    3.7948366    1.4346018
C    2.3401561    4.7326200    1.0794548
C    2.4941046    5.0994164   -0.2569187
C    1.6815643    4.5269798   -1.2366831
C    0.7244692    3.6004899   -0.8767279
O   -5.3813303    0.4422280   -2.0109528
H   -5.5386108   -1.0865173    0.1310628
O   -3.8980276   -1.2135251    2.2000667
H   -3.2982103    1.9500759   -1.9479872
H   -1.6961393   -0.0972621    2.9162236
O    0.4219456    1.4716694    2.8676596
H    1.2757887    3.5374265    2.4753131
H    2.9668842    5.1890583    1.8362722
O    3.4223958    6.0138171   -0.6597619
H    1.8112535    4.8136964   -2.2720221
H    0.1050404    3.1628646   -1.6461732
H   -6.1000703   -0.1862145   -1.8479144
H    0.2356585    0.8258979    3.5641617
H    3.9201698    6.3421232    0.1031629
$end

$rem
BASIS  =  def2-ma-TZVP
MEM_STATIC  =  2000
MEM_TOTAL  =  64000
METHOD  =  CAM-B3LYP
SOLVENT_METHOD = pcm
SYMMETRY_IGNORE  =  1
CIS_N_ROOTS = 7
CIS_SINGLETS = true
CIS_TRIPLETS = true
CISTR_PRINT = true
RPA = true
PRINT_ORBITALS = true
SCF_PRINT = 1
SCF_FINAL_PRINT = 2
PRINT_GENERAL_BASIS = true
CISTR_PRINT = true
PRINT_RADII_GYRE = true
MULTIPOLE_ORDER = 5
CIS_AMPL_PRINT = 5
CIS_AMPL_ANAL = true
STATE_ANALYSIS = true
$end

$pcm
Theory   CPCM
Method   SWIG
Solver   Inversion
Radii    Bondi
$end

$solvent
Dielectric         78.39
OpticalDielectric  1.777849
$end

--------------------------------------------------------------

             Standard Nuclear Orientation (Angstroms)
    I     Atom           X                Y                Z
 ----------------------------------------------------------------
    1      C      -4.4943845000     0.4180708000    -0.9766122000
    2      C      -4.6765787000    -0.4303227000     0.1066511000
    3      C      -3.7663505000    -0.4577857000     1.1873554000
    4      C      -2.6230453000     0.4609618000     1.0802027000
    5      C      -2.5033488000     1.3003747000    -0.0601816000
    6      C      -3.4076510000     1.3018577000    -1.0911759000
    7      C      -1.6419924000     0.5426762000     2.0426739000
    8      C      -0.5628120000     1.4230115000     1.9218602000
    9      C      -0.4748024000     2.2416390000     0.8062254000
   10      O      -1.4444624000     2.1508845000    -0.1320620000
   11      C       0.5561783000     3.2078312000     0.4652250000
   12      C       1.3876178000     3.7948366000     1.4346018000
   13      C       2.3401561000     4.7326200000     1.0794548000
   14      C       2.4941046000     5.0994164000    -0.2569187000
   15      C       1.6815643000     4.5269798000    -1.2366831000
   16      C       0.7244692000     3.6004899000    -0.8767279000
   17      O      -5.3813303000     0.4422280000    -2.0109528000
   18      H      -5.5386108000    -1.0865173000     0.1310628000
   19      O      -3.8980276000    -1.2135251000     2.2000667000
   20      H      -3.2982103000     1.9500759000    -1.9479872000
   21      H      -1.6961393000    -0.0972621000     2.9162236000
   22      O       0.4219456000     1.4716694000     2.8676596000
   23      H       1.2757887000     3.5374265000     2.4753131000
   24      H       2.9668842000     5.1890583000     1.8362722000
   25      O       3.4223958000     6.0138171000    -0.6597619000
   26      H       1.8112535000     4.8136964000    -2.2720221000
   27      H       0.1050404000     3.1628646000    -1.6461732000
   28      H      -6.1000703000    -0.1862145000    -1.8479144000
   29      H       0.2356585000     0.8258979000     3.5641617000
   30      H       3.9201698000     6.3421232000     0.1031629000
 ----------------------------------------------------------------

   16    -953.6729464389      5.76e-09  Convergence criterion met
 Total energy =  -953.67294644

             TDDFT Excitation Energies
 ---------------------------------------------------

 Excited state   1: excitation energy (eV) =        1.3904
 Total energy for state   1:                  -953.62184855 au
    Multiplicity: Triplet
    Trans. Mom.:  0.0000 X   0.0000 Y   0.0000 Z
    Strength   :     0.0000000000
    X: D(   64) --> V(    1) amplitude =  0.0814
    X: D(   65) --> V(    1) amplitude =  0.0717
    X: D(   67) --> V(    1) amplitude = -0.1514
    X: D(   69) --> V(    1) amplitude = -0.1430
    X: D(   69) --> V(    2) amplitude =  0.0882
    X: D(   70) --> V(    1) amplitude =  0.9781
    Y: D(   70) --> V(    1) amplitude =  0.2048

 Excited state   2: excitation energy (eV) =        2.4158
 Total energy for state   2:                  -953.58416620 au
    Multiplicity: Singlet
    Trans. Mom.:  1.8546 X   1.5403 Y  -0.2559 Z
    Strength   :     0.3478589122
    X: D(   69) --> V(    1) amplitude =  0.0897
    X: D(   70) --> V(    1) amplitude =  0.9862
    X: D(   70) --> V(    2) amplitude =  0.0890

 Excited state   3: excitation energy (eV) =        2.5450
 Total energy for state   3:                  -953.57941759 au
    Multiplicity: Triplet
    Trans. Mom.:  0.0000 X   0.0000 Y   0.0000 Z
    Strength   :     0.0000000000
    X: D(   64) --> V(    1) amplitude = -0.0997
    X: D(   65) --> V(    1) amplitude = -0.1166
    X: D(   66) --> V(    3) amplitude = -0.1181
    X: D(   67) --> V(    2) amplitude =  0.1006
    X: D(   67) --> V(    7) amplitude = -0.1085
    X: D(   69) --> V(    1) amplitude =  0.8511
    Y: D(   69) --> V(    1) amplitude =  0.0873
    X: D(   69) --> V(    7) amplitude =  0.0759
    X: D(   69) --> V(   10) amplitude = -0.0801
    X: D(   70) --> V(    1) amplitude =  0.1486
    X: D(   70) --> V(    2) amplitude =  0.3983
    X: D(   70) --> V(   10) amplitude = -0.0833

 Excited state   4: excitation energy (eV) =        3.3789
 Total energy for state   4:                  -953.54877260 au
    Multiplicity: Triplet
    Trans. Mom.:  0.0000 X   0.0000 Y   0.0000 Z
    Strength   :     0.0000000000
    X: D(   61) --> V(    1) amplitude =  0.0850
    X: D(   65) --> V(    1) amplitude =  0.0794
    X: D(   66) --> V(    3) amplitude = -0.2613
    Y: D(   66) --> V(    3) amplitude = -0.0796
    X: D(   67) --> V(    1) amplitude = -0.6133
    X: D(   67) --> V(    7) amplitude = -0.1433
    X: D(   67) --> V(   10) amplitude =  0.0955
    X: D(   68) --> V(    1) amplitude =  0.0725
    X: D(   69) --> V(    1) amplitude = -0.1899
    X: D(   69) --> V(    2) amplitude = -0.4108
    X: D(   69) --> V(    7) amplitude =  0.2177
    X: D(   70) --> V(    2) amplitude =  0.4277
    X: D(   70) --> V(   10) amplitude =  0.1827

 Excited state   5: excitation energy (eV) =        3.4573
 Total energy for state   5:                  -953.54589398 au
    Multiplicity: Singlet
    Trans. Mom.: -1.7858 X  -1.2601 Y  -0.0812 Z
    Strength   :     0.4051798107
    X: D(   64) --> V(    1) amplitude = -0.0887
    X: D(   65) --> V(    1) amplitude = -0.0865
    X: D(   67) --> V(    1) amplitude =  0.0896
    X: D(   69) --> V(    1) amplitude =  0.9624
    X: D(   70) --> V(    1) amplitude = -0.0963
    X: D(   70) --> V(    2) amplitude =  0.1512

 Excited state   6: excitation energy (eV) =        3.5005
 Total energy for state   6:                  -953.54430592 au
    Multiplicity: Triplet
    Trans. Mom.:  0.0000 X   0.0000 Y   0.0000 Z
    Strength   :     0.0000000000
    X: D(   61) --> V(    1) amplitude = -0.0815
    X: D(   64) --> V(    1) amplitude = -0.1969
    X: D(   65) --> V(    7) amplitude = -0.0711
    X: D(   66) --> V(    3) amplitude =  0.1410
    X: D(   67) --> V(    1) amplitude =  0.2359
    X: D(   67) --> V(    2) amplitude = -0.1700
    X: D(   68) --> V(    1) amplitude = -0.2606
    X: D(   69) --> V(    1) amplitude = -0.2690
    X: D(   69) --> V(    2) amplitude =  0.2693
    X: D(   69) --> V(   26) amplitude =  0.0946
    X: D(   70) --> V(    2) amplitude =  0.5758
    X: D(   70) --> V(    7) amplitude =  0.4733

 Excited state   7: excitation energy (eV) =        3.5313
 Total energy for state   7:                  -953.54317441 au
    Multiplicity: Triplet
    Trans. Mom.:  0.0000 X   0.0000 Y   0.0000 Z
    Strength   :     0.0000000000
    X: D(   67) --> V(    1) amplitude =  0.1301
    X: D(   68) --> V(    1) amplitude =  0.8972
    X: D(   68) --> V(    2) amplitude =  0.1352
    X: D(   68) --> V(    7) amplitude = -0.2036
    X: D(   68) --> V(   10) amplitude = -0.1581
    X: D(   68) --> V(   26) amplitude = -0.0814
    X: D(   69) --> V(    2) amplitude =  0.1025
    X: D(   70) --> V(    2) amplitude =  0.1333
    X: D(   70) --> V(    7) amplitude =  0.1379

 Excited state   8: excitation energy (eV) =        3.7303
 Total energy for state   8:                  -953.53586153 au
    Multiplicity: Singlet
    Trans. Mom.:  0.0784 X   0.0702 Y   0.0168 Z
    Strength   :     0.0010379895
    X: D(   68) --> V(    1) amplitude =  0.9532
    X: D(   68) --> V(    2) amplitude =  0.1424
    X: D(   68) --> V(    7) amplitude = -0.1793
    X: D(   68) --> V(   10) amplitude = -0.1227

 Excited state   9: excitation energy (eV) =        3.9747
 Total energy for state   9:                  -953.52687991 au
    Multiplicity: Triplet
    Trans. Mom.:  0.0000 X   0.0000 Y   0.0000 Z
    Strength   :     0.0000000000
    X: D(   54) --> V(    1) amplitude = -0.0847
    X: D(   64) --> V(    1) amplitude = -0.3447
    X: D(   64) --> V(    2) amplitude = -0.1130
    X: D(   65) --> V(    1) amplitude =  0.5382
    X: D(   67) --> V(    1) amplitude = -0.1506
    X: D(   67) --> V(    2) amplitude =  0.2180
    X: D(   69) --> V(    1) amplitude =  0.1882
    X: D(   69) --> V(    2) amplitude =  0.2615
    X: D(   69) --> V(    7) amplitude =  0.2394
    X: D(   70) --> V(    2) amplitude = -0.2996
    X: D(   70) --> V(    7) amplitude =  0.1961
    X: D(   70) --> V(   10) amplitude =  0.3346
    X: D(   70) --> V(   11) amplitude = -0.0717
    X: D(   70) --> V(   12) amplitude =  0.0942
    X: D(   70) --> V(   13) amplitude = -0.1022
    X: D(   70) --> V(   26) amplitude =  0.1189

 Excited state  10: excitation energy (eV) =        4.0008
 Total energy for state  10:                  -953.52592014 au
    Multiplicity: Triplet
    Trans. Mom.:  0.0000 X   0.0000 Y   0.0000 Z
    Strength   :     0.0000000000
    X: D(   54) --> V(    1) amplitude =  0.0914
    X: D(   58) --> V(    1) amplitude = -0.1134
    X: D(   64) --> V(    1) amplitude =  0.2164
    X: D(   64) --> V(    7) amplitude = -0.0964
    X: D(   65) --> V(    1) amplitude = -0.5985
    X: D(   65) --> V(    2) amplitude = -0.1536
    X: D(   65) --> V(   10) amplitude = -0.1081
    X: D(   65) --> V(   26) amplitude =  0.0765
    X: D(   66) --> V(    3) amplitude =  0.2154
    X: D(   67) --> V(    1) amplitude = -0.3704
    X: D(   67) --> V(    7) amplitude =  0.0925
    X: D(   69) --> V(    1) amplitude =  0.1222
    X: D(   69) --> V(    2) amplitude =  0.2616
    X: D(   69) --> V(    7) amplitude =  0.1191
    X: D(   69) --> V(   10) amplitude =  0.1780
    X: D(   70) --> V(    2) amplitude = -0.1570
    X: D(   70) --> V(    7) amplitude =  0.2510
    X: D(   70) --> V(   10) amplitude =  0.2423

 Excited state  11: excitation energy (eV) =        4.3978
 Total energy for state  11:                  -953.51132851 au
    Multiplicity: Singlet
    Trans. Mom.:  1.0272 X   0.5374 Y   0.2899 Z
    Strength   :     0.1538500484
    X: D(   67) --> V(    1) amplitude =  0.3843
    X: D(   69) --> V(    1) amplitude = -0.1750
    X: D(   69) --> V(    2) amplitude =  0.1579
    X: D(   69) --> V(   10) amplitude = -0.1191
    X: D(   70) --> V(    2) amplitude =  0.8193
    X: D(   70) --> V(    7) amplitude =  0.2584

 Excited state  12: excitation energy (eV) =        4.6623
 Total energy for state  12:                  -953.50161032 au
    Multiplicity: Singlet
    Trans. Mom.:  0.0232 X   0.0692 Y  -0.1419 Z
    Strength   :     0.0029096897
    X: D(   66) --> V(    1) amplitude =  0.7728
    X: D(   66) --> V(    2) amplitude = -0.2396
    X: D(   66) --> V(    7) amplitude =  0.1413
    X: D(   67) --> V(    1) amplitude =  0.0733
    X: D(   67) --> V(    3) amplitude = -0.1820
    X: D(   69) --> V(    2) amplitude =  0.1055
    X: D(   69) --> V(    3) amplitude =  0.3445
    X: D(   70) --> V(    3) amplitude = -0.3757

 Excited state  13: excitation energy (eV) =        4.7767
 Total energy for state  13:                  -953.49740547 au
    Multiplicity: Singlet
    Trans. Mom.: -0.1926 X   0.6100 Y  -1.1280 Z
    Strength   :     0.1967893563
    X: D(   61) --> V(    1) amplitude = -0.0741
    X: D(   65) --> V(    1) amplitude = -0.0904
    X: D(   66) --> V(    3) amplitude =  0.0934
    X: D(   67) --> V(    1) amplitude =  0.8574
    X: D(   69) --> V(    2) amplitude =  0.1824
    X: D(   70) --> V(    2) amplitude = -0.4027

 Excited state  14: excitation energy (eV) =        5.1507
 Total energy for state  14:                  -953.48365988 au
    Multiplicity: Singlet
    Trans. Mom.: -0.1610 X  -0.0445 Y  -0.2097 Z
    Strength   :     0.0090706769
    X: D(   66) --> V(    1) amplitude =  0.2526
    X: D(   69) --> V(    3) amplitude = -0.1144
    X: D(   69) --> V(    5) amplitude = -0.1195
    X: D(   69) --> V(    8) amplitude = -0.0748
    X: D(   70) --> V(    3) amplitude =  0.3958
    X: D(   70) --> V(    4) amplitude =  0.7359
    X: D(   70) --> V(    5) amplitude = -0.2656
    X: D(   70) --> V(    9) amplitude = -0.2185
    X: D(   70) --> V(   11) amplitude = -0.2041

 ---------------------------------------------------

                    Orbital Energies (a.u.)
 --------------------------------------------------------------

 Alpha MOs
 -- Occupied --
-19.2995 -19.2457 -19.2436 -19.2421 -19.1511 -10.3610 -10.3461 -10.3370
-10.3353 -10.3286 -10.3205 -10.2979 -10.2762 -10.2750 -10.2678 -10.2676
-10.2572 -10.2558 -10.2432 -10.2325  -1.2251  -1.1608  -1.1564  -1.1547
 -1.0768  -0.9667  -0.9482  -0.9231  -0.8817  -0.8488  -0.8312  -0.8182
 -0.7657  -0.7600  -0.7137  -0.7023  -0.6830  -0.6695  -0.6370  -0.6294
 -0.6241  -0.5958  -0.5842  -0.5745  -0.5610  -0.5460  -0.5331  -0.5278
 -0.5088  -0.5045  -0.5034  -0.4985  -0.4932  -0.4881  -0.4840  -0.4738
 -0.4616  -0.4576  -0.4528  -0.4462  -0.4315  -0.4275  -0.4111  -0.3834
 -0.3648  -0.3296  -0.3218  -0.3149  -0.2830  -0.2493

                    Cartesian Multipole Moments
                  LMN = < X^L Y^M Z^N >

 Total job time:  3455.73s(wall), 48007.57s(cpu)
        *  Thank you very much for using Q-Chem.  Have a nice day.  *
