 Q-Chem 6.2, Q-Chem, Inc., Pleasanton, CA (2024)
 Q-Chem 6.2.0 for Intel X86 EM64T Linux

User input:
--------------------------------------------------------------
$comment
TDDFT calculation of pelargonidin Q1 structure
nprocs=16
mem=64gb
$end

$molecule
0 1
C   -4.4242662    0.3428700   -1.0586814
C   -4.6462430   -0.4460260    0.0789714
C   -3.7696416   -0.3766015    1.1426319
C   -2.6482979    0.4847680    1.0944877
C   -2.4771150    1.2515241   -0.0662691
C   -3.3372578    1.2022446   -1.1486865
C   -1.6908052    0.6247489    2.1229615
C   -0.6340982    1.4833402    1.9987548
C   -0.4762271    2.2641383    0.8130905
O   -1.4143906    2.0957737   -0.1488991
C    0.5303833    3.1975496    0.4793701
C    1.5660528    3.6030702    1.3756612
C    2.5083303    4.5202638    1.0109003
C    2.5221586    5.1283848   -0.2914451
C    1.4741670    4.7118319   -1.1881023
C    0.5324470    3.8008081   -0.8178058
O   -5.2713339    0.2965741   -2.1251228
H   -5.5044129   -1.1065337    0.1213572
O   -3.9279196   -1.1140655    2.2747027
H   -3.1695133    1.8093719   -2.0265000
H   -1.7835657    0.0400732    3.0295477
O    0.3020075    1.6155448    2.9799409
H    1.6046182    3.1874335    2.3680928
H    3.2786957    4.8148221    1.7138988
O    3.4010928    5.9787469   -0.6341305
H    1.4542998    5.1468439   -2.1803654
H   -0.2303994    3.5203438   -1.5296904
H   -5.9910621   -0.3291277   -1.9581886
H   -4.7179538   -1.6691741    2.2043969
H    0.0771305    1.0363979    3.7229004
$end

$rem
BASIS  =  def2-ma-TZVP
MEM_STATIC  =  2000
MEM_TOTAL  =  64000
METHOD  =  CAM-B3LYP
SOLVENT_METHOD = pcm
SYMMETRY_IGNORE  =  1
CIS_N_ROOTS = 7
CIS_SINGLETS = true
CIS_TRIPLETS = true
CISTR_PRINT = true
RPA = true
PRINT_ORBITALS = true
SCF_PRINT = 1
SCF_FINAL_PRINT = 2
PRINT_GENERAL_BASIS = true
CISTR_PRINT = true
PRINT_RADII_GYRE = true
MULTIPOLE_ORDER = 5
CIS_AMPL_PRINT = 5
CIS_AMPL_ANAL = true
STATE_ANALYSIS = true
$end

$pcm
Theory   CPCM
Method   SWIG
Solver   Inversion
Radii    Bondi
$end

$solvent
Dielectric         78.39
OpticalDielectric  1.777849
$end

--------------------------------------------------------------

             Standard Nuclear Orientation (Angstroms)
    I     Atom           X                Y                Z
 ----------------------------------------------------------------
    1      C      -4.4242662000     0.3428700000    -1.0586814000
    2      C      -4.6462430000    -0.4460260000     0.0789714000
    3      C      -3.7696416000    -0.3766015000     1.1426319000
    4      C      -2.6482979000     0.4847680000     1.0944877000
    5      C      -2.4771150000     1.2515241000    -0.0662691000
    6      C      -3.3372578000     1.2022446000    -1.1486865000
    7      C      -1.6908052000     0.6247489000     2.1229615000
    8      C      -0.6340982000     1.4833402000     1.9987548000
    9      C      -0.4762271000     2.2641383000     0.8130905000
   10      O      -1.4143906000     2.0957737000    -0.1488991000
   11      C       0.5303833000     3.1975496000     0.4793701000
   12      C       1.5660528000     3.6030702000     1.3756612000
   13      C       2.5083303000     4.5202638000     1.0109003000
   14      C       2.5221586000     5.1283848000    -0.2914451000
   15      C       1.4741670000     4.7118319000    -1.1881023000
   16      C       0.5324470000     3.8008081000    -0.8178058000
   17      O      -5.2713339000     0.2965741000    -2.1251228000
   18      H      -5.5044129000    -1.1065337000     0.1213572000
   19      O      -3.9279196000    -1.1140655000     2.2747027000
   20      H      -3.1695133000     1.8093719000    -2.0265000000
   21      H      -1.7835657000     0.0400732000     3.0295477000
   22      O       0.3020075000     1.6155448000     2.9799409000
   23      H       1.6046182000     3.1874335000     2.3680928000
   24      H       3.2786957000     4.8148221000     1.7138988000
   25      O       3.4010928000     5.9787469000    -0.6341305000
   26      H       1.4542998000     5.1468439000    -2.1803654000
   27      H      -0.2303994000     3.5203438000    -1.5296904000
   28      H      -5.9910621000    -0.3291277000    -1.9581886000
   29      H      -4.7179538000    -1.6691741000     2.2043969000
   30      H       0.0771305000     1.0363979000     3.7229004000
 ----------------------------------------------------------------

   16    -953.6692295006      5.23e-09  Convergence criterion met
 Total energy =  -953.66922950

             TDDFT Excitation Energies
 ---------------------------------------------------

 Excited state   1: excitation energy (eV) =        1.2629
 Total energy for state   1:                  -953.62281814 au
    Multiplicity: Triplet
    Trans. Mom.:  0.0000 X   0.0000 Y   0.0000 Z
    Strength   :     0.0000000000
    X: D(   65) --> V(    1) amplitude = -0.1001
    X: D(   65) --> V(   10) amplitude =  0.0772
    X: D(   67) --> V(    2) amplitude = -0.0983
    X: D(   69) --> V(    2) amplitude =  0.0957
    X: D(   69) --> V(    4) amplitude = -0.0784
    X: D(   70) --> V(    1) amplitude =  1.0148
    Y: D(   70) --> V(    1) amplitude =  0.2934

 Excited state   2: excitation energy (eV) =        2.5421
 Total energy for state   2:                  -953.57581050 au
    Multiplicity: Triplet
    Trans. Mom.:  0.0000 X   0.0000 Y   0.0000 Z
    Strength   :     0.0000000000
    X: D(   65) --> V(    1) amplitude =  0.2009
    X: D(   65) --> V(   10) amplitude = -0.0753
    X: D(   66) --> V(    6) amplitude = -0.0809
    X: D(   67) --> V(    1) amplitude = -0.2277
    X: D(   67) --> V(    4) amplitude =  0.1011
    X: D(   69) --> V(    1) amplitude =  0.8025
    Y: D(   69) --> V(    1) amplitude =  0.1043
    X: D(   69) --> V(    2) amplitude = -0.1126
    X: D(   69) --> V(    4) amplitude =  0.1215
    X: D(   70) --> V(    2) amplitude =  0.4129
    Y: D(   70) --> V(    2) amplitude =  0.0789
    X: D(   70) --> V(    4) amplitude = -0.1170
    X: D(   70) --> V(   10) amplitude =  0.0862

 Excited state   3: excitation energy (eV) =        2.6781
 Total energy for state   3:                  -953.57081198 au
    Multiplicity: Singlet
    Trans. Mom.: -3.2274 X  -2.6434 Y   0.4138 Z
    Strength   :     1.1531208458
    X: D(   69) --> V(    1) amplitude = -0.1130
    X: D(   70) --> V(    1) amplitude =  0.9827
    Y: D(   70) --> V(    1) amplitude = -0.0726

 Excited state   4: excitation energy (eV) =        3.3889
 Total energy for state   4:                  -953.54469129 au
    Multiplicity: Triplet
    Trans. Mom.:  0.0000 X   0.0000 Y   0.0000 Z
    Strength   :     0.0000000000
    X: D(   57) --> V(    6) amplitude =  0.1132
    X: D(   66) --> V(    1) amplitude =  0.7756
    Y: D(   66) --> V(    1) amplitude =  0.0727
    X: D(   66) --> V(    2) amplitude =  0.1889
    X: D(   66) --> V(    4) amplitude = -0.1345
    X: D(   66) --> V(   10) amplitude =  0.1123
    X: D(   66) --> V(   36) amplitude =  0.0785
    X: D(   67) --> V(    1) amplitude =  0.1585
    X: D(   67) --> V(    6) amplitude =  0.1568
    X: D(   69) --> V(    4) amplitude =  0.1167
    X: D(   69) --> V(    6) amplitude = -0.1366
    X: D(   70) --> V(    2) amplitude =  0.1748
    X: D(   70) --> V(    4) amplitude =  0.2151
    X: D(   70) --> V(    6) amplitude = -0.3532

 Excited state   5: excitation energy (eV) =        3.4732
 Total energy for state   5:                  -953.54159127 au
    Multiplicity: Triplet
    Trans. Mom.:  0.0000 X   0.0000 Y   0.0000 Z
    Strength   :     0.0000000000
    X: D(   68) --> V(    1) amplitude =  0.8934
    X: D(   68) --> V(    2) amplitude =  0.2639
    X: D(   68) --> V(    4) amplitude = -0.1515
    X: D(   68) --> V(    6) amplitude = -0.0828
    X: D(   68) --> V(   10) amplitude =  0.2482
    X: D(   68) --> V(   13) amplitude = -0.0848
    X: D(   68) --> V(   27) amplitude =  0.0970

 Excited state   6: excitation energy (eV) =        3.6023
 Total energy for state   6:                  -953.53684848 au
    Multiplicity: Triplet
    Trans. Mom.:  0.0000 X   0.0000 Y   0.0000 Z
    Strength   :     0.0000000000
    X: D(   65) --> V(    1) amplitude = -0.1595
    X: D(   65) --> V(   27) amplitude =  0.0899
    X: D(   66) --> V(    1) amplitude = -0.1926
    X: D(   66) --> V(    2) amplitude = -0.0823
    X: D(   66) --> V(    6) amplitude =  0.1322
    X: D(   67) --> V(    1) amplitude =  0.3517
    X: D(   67) --> V(    2) amplitude =  0.2738
    X: D(   67) --> V(    4) amplitude =  0.1404
    X: D(   67) --> V(    6) amplitude =  0.0838
    X: D(   67) --> V(   10) amplitude = -0.0816
    X: D(   69) --> V(    1) amplitude = -0.2898
    X: D(   69) --> V(    2) amplitude = -0.2331
    X: D(   69) --> V(    4) amplitude =  0.1970
    X: D(   69) --> V(    6) amplitude =  0.1241
    X: D(   69) --> V(   10) amplitude =  0.1333
    X: D(   69) --> V(   13) amplitude = -0.0779
    X: D(   70) --> V(    1) amplitude =  0.0774
    X: D(   70) --> V(    2) amplitude =  0.6282
    X: D(   70) --> V(    6) amplitude =  0.0960
    X: D(   70) --> V(   10) amplitude = -0.0812

 Excited state   7: excitation energy (eV) =        3.6346
 Total energy for state   7:                  -953.53566008 au
    Multiplicity: Triplet
    Trans. Mom.:  0.0000 X   0.0000 Y   0.0000 Z
    Strength   :     0.0000000000
    X: D(   64) --> V(    1) amplitude =  0.0767
    X: D(   65) --> V(    1) amplitude =  0.1901
    X: D(   66) --> V(    4) amplitude =  0.0758
    X: D(   66) --> V(    6) amplitude = -0.0937
    X: D(   67) --> V(    1) amplitude = -0.6394
    X: D(   67) --> V(    2) amplitude =  0.0773
    X: D(   67) --> V(    4) amplitude = -0.1273
    X: D(   69) --> V(    1) amplitude = -0.4041
    X: D(   69) --> V(    2) amplitude =  0.0822
    X: D(   69) --> V(    4) amplitude = -0.2634
    X: D(   69) --> V(    6) amplitude = -0.1594
    X: D(   70) --> V(    2) amplitude =  0.4340
    X: D(   70) --> V(   10) amplitude =  0.1560

 Excited state   8: excitation energy (eV) =        3.7244
 Total energy for state   8:                  -953.53235909 au
    Multiplicity: Singlet
    Trans. Mom.: -0.3801 X  -0.4052 Y   0.2170 Z
    Strength   :     0.0324672558
    X: D(   67) --> V(    1) amplitude =  0.1233
    X: D(   68) --> V(    1) amplitude = -0.0800
    X: D(   69) --> V(    1) amplitude =  0.9607
    X: D(   69) --> V(    2) amplitude = -0.0981
    X: D(   70) --> V(    1) amplitude =  0.1082
    X: D(   70) --> V(    2) amplitude =  0.1129

 Excited state   9: excitation energy (eV) =        3.7766
 Total energy for state   9:                  -953.53044021 au
    Multiplicity: Singlet
    Trans. Mom.: -0.0328 X  -0.0390 Y   0.0193 Z
    Strength   :     0.0002746909
    X: D(   68) --> V(    1) amplitude =  0.9143
    X: D(   68) --> V(    2) amplitude =  0.2402
    X: D(   68) --> V(    4) amplitude = -0.1393
    X: D(   68) --> V(    6) amplitude = -0.0733
    X: D(   68) --> V(   10) amplitude =  0.2176
    X: D(   68) --> V(   13) amplitude = -0.0745
    X: D(   68) --> V(   27) amplitude =  0.0745
    X: D(   69) --> V(    1) amplitude =  0.0846

 Excited state  10: excitation energy (eV) =        4.0925
 Total energy for state  10:                  -953.51883149 au
    Multiplicity: Triplet
    Trans. Mom.:  0.0000 X   0.0000 Y   0.0000 Z
    Strength   :     0.0000000000
    X: D(   62) --> V(    1) amplitude =  0.1019
    X: D(   62) --> V(    2) amplitude = -0.0751
    X: D(   64) --> V(    1) amplitude = -0.2378
    X: D(   65) --> V(    1) amplitude =  0.2490
    X: D(   65) --> V(    2) amplitude = -0.1040
    X: D(   65) --> V(    4) amplitude =  0.1250
    X: D(   66) --> V(    6) amplitude =  0.1455
    X: D(   67) --> V(    1) amplitude =  0.3147
    X: D(   67) --> V(    2) amplitude = -0.2471
    X: D(   67) --> V(    4) amplitude = -0.1274
    X: D(   67) --> V(    6) amplitude = -0.0992
    X: D(   67) --> V(   27) amplitude = -0.0749
    X: D(   69) --> V(    2) amplitude = -0.4173
    X: D(   69) --> V(    4) amplitude = -0.4813
    X: D(   69) --> V(    6) amplitude = -0.2725
    X: D(   69) --> V(   10) amplitude = -0.0797
    X: D(   70) --> V(    2) amplitude =  0.1028
    X: D(   70) --> V(    4) amplitude =  0.1691
    X: D(   70) --> V(    6) amplitude =  0.1102
    X: D(   70) --> V(   10) amplitude =  0.1722

 Excited state  11: excitation energy (eV) =        4.3473
 Total energy for state  11:                  -953.50946870 au
    Multiplicity: Singlet
    Trans. Mom.:  0.1676 X   0.0591 Y   0.1363 Z
    Strength   :     0.0053409124
    X: D(   66) --> V(    1) amplitude =  0.9379
    X: D(   66) --> V(    2) amplitude =  0.1388
    X: D(   66) --> V(    4) amplitude = -0.0881
    X: D(   67) --> V(    1) amplitude =  0.1168
    X: D(   70) --> V(    2) amplitude =  0.1331
    X: D(   70) --> V(    4) amplitude =  0.1190
    X: D(   70) --> V(    6) amplitude = -0.1785

 Excited state  12: excitation energy (eV) =        4.5022
 Total energy for state  12:                  -953.50377777 au
    Multiplicity: Singlet
    Trans. Mom.:  0.0472 X  -0.0287 Y   0.0850 Z
    Strength   :     0.0011334077
    X: D(   66) --> V(    1) amplitude = -0.1988
    X: D(   67) --> V(    1) amplitude =  0.5738
    X: D(   67) --> V(    4) amplitude =  0.0919
    X: D(   69) --> V(    1) amplitude = -0.1855
    X: D(   69) --> V(    2) amplitude = -0.2920
    X: D(   69) --> V(    6) amplitude = -0.0712
    X: D(   69) --> V(   10) amplitude =  0.0854
    X: D(   70) --> V(    2) amplitude =  0.6450
    X: D(   70) --> V(    4) amplitude =  0.2091

 Excited state  13: excitation energy (eV) =        4.6728
 Total energy for state  13:                  -953.49750562 au
    Multiplicity: Singlet
    Trans. Mom.: -0.4762 X  -0.9129 Y   0.9720 Z
    Strength   :     0.2295243358
    X: D(   65) --> V(    1) amplitude =  0.0953
    X: D(   66) --> V(    6) amplitude =  0.0726
    X: D(   67) --> V(    1) amplitude = -0.6091
    X: D(   67) --> V(    2) amplitude =  0.1420
    X: D(   69) --> V(    2) amplitude =  0.2460
    X: D(   70) --> V(    2) amplitude =  0.6884
    X: D(   70) --> V(    6) amplitude = -0.1454
    X: D(   70) --> V(   10) amplitude =  0.0771

 Excited state  14: excitation energy (eV) =        4.9469
 Total energy for state  14:                  -953.48743351 au
    Multiplicity: Singlet
    Trans. Mom.: -0.5460 X  -0.0562 Y  -0.7651 Z
    Strength   :     0.1074623277
    X: D(   66) --> V(    1) amplitude = -0.2049
    X: D(   67) --> V(    1) amplitude = -0.0739
    X: D(   67) --> V(    6) amplitude =  0.1191
    X: D(   69) --> V(    4) amplitude =  0.0780
    X: D(   69) --> V(    6) amplitude = -0.1963
    X: D(   70) --> V(    2) amplitude = -0.1720
    X: D(   70) --> V(    4) amplitude =  0.5795
    X: D(   70) --> V(    6) amplitude = -0.6963

 ---------------------------------------------------

                    Orbital Energies (a.u.)
 --------------------------------------------------------------

 Alpha MOs
 -- Occupied --
-19.2973 -19.2485 -19.2477 -19.2458 -19.1542 -10.3709 -10.3475 -10.3422
-10.3419 -10.3397 -10.3113 -10.2898 -10.2804 -10.2660 -10.2616 -10.2606
-10.2605 -10.2563 -10.2398 -10.2369  -1.2253  -1.1644  -1.1636  -1.1589
 -1.0750  -0.9729  -0.9462  -0.9195  -0.8831  -0.8461  -0.8360  -0.8170
 -0.7658  -0.7599  -0.7203  -0.6993  -0.6787  -0.6701  -0.6472  -0.6327
 -0.6208  -0.5977  -0.5848  -0.5748  -0.5603  -0.5440  -0.5353  -0.5276
 -0.5164  -0.5157  -0.5005  -0.4948  -0.4943  -0.4887  -0.4828  -0.4765
 -0.4706  -0.4614  -0.4470  -0.4376  -0.4346  -0.4207  -0.4090  -0.3938
 -0.3636  -0.3257  -0.3222  -0.3087  -0.2907  -0.2452

                    Cartesian Multipole Moments
                  LMN = < X^L Y^M Z^N >

 Total job time:  5895.99s(wall), 85051.69s(cpu)
        *  Thank you very much for using Q-Chem.  Have a nice day.  *
