 Q-Chem 6.2, Q-Chem, Inc., Pleasanton, CA (2024)
 Q-Chem 6.2.0 for Intel X86 EM64T Linux

User input:
--------------------------------------------------------------
$comment
TDDFT calculation of pelargonidin H structure
nprocs=16
mem=64gb
$end

$molecule
1 1
C   -4.4699863    0.4196283   -1.0155933
C   -4.6593629   -0.4194720    0.0989342
C   -3.7581760   -0.3980875    1.1361054
C   -2.6308485    0.4706889    1.0856146
C   -2.4940250    1.2878125   -0.0557726
C   -3.3860929    1.2825095   -1.1097213
C   -1.6541549    0.5615806    2.0774191
C   -0.5871520    1.4326939    1.9557380
C   -0.4831709    2.2427245    0.8110911
O   -1.4366156    2.1298805   -0.1255499
C    0.5443789    3.1989296    0.4707647
C    1.4289743    3.7362203    1.4269907
C    2.3764940    4.6728857    1.0666422
C    2.4776634    5.0894605   -0.2618740
C    1.6143208    4.5657388   -1.2292084
C    0.6614547    3.6421865   -0.8650164
O   -5.3480234    0.4160023   -2.0458433
H   -5.5182514   -1.0791364    0.1351204
O   -3.8745657   -1.1726542    2.2394437
H   -3.2477754    1.9240880   -1.9676021
H   -1.7155983   -0.0642688    2.9591809
O    0.3862180    1.5118050    2.8984807
H    1.3602585    3.4401217    2.4601008
H    3.0427995    5.0915959    1.8110213
O    3.3960513    6.0015833   -0.6686857
H    1.7062493    4.8907868   -2.2569920
H    0.0043605    3.2427441   -1.6233233
H   -6.0689378   -0.2103214   -1.8824310
H   -4.6673491   -1.7266245    2.1838046
H    0.1973805    0.8984060    3.6240292
H    3.9354023    6.2958216    0.0804817
$end

$rem
BASIS  =  def2-ma-TZVP
MEM_STATIC  =  2000
MEM_TOTAL  =  64000
METHOD  =  CAM-B3LYP
SOLVENT_METHOD = pcm
SYMMETRY_IGNORE  =  1
CIS_N_ROOTS = 7
CIS_SINGLETS = true
CIS_TRIPLETS = true
CISTR_PRINT = true
RPA = true
PRINT_ORBITALS = true
SCF_PRINT = 1
SCF_FINAL_PRINT = 2
PRINT_GENERAL_BASIS = true
CISTR_PRINT = true
PRINT_RADII_GYRE = true
MULTIPOLE_ORDER = 5
CIS_AMPL_PRINT = 5
CIS_AMPL_ANAL = true
STATE_ANALYSIS = true
$end

$pcm
Theory   CPCM
Method   SWIG
Solver   Inversion
Radii    Bondi
$end

$solvent
Dielectric         78.39
OpticalDielectric  1.777849
$end

--------------------------------------------------------------

             Standard Nuclear Orientation (Angstroms)
    I     Atom           X                Y                Z
 ----------------------------------------------------------------
    1      C      -4.4699863000     0.4196283000    -1.0155933000
    2      C      -4.6593629000    -0.4194720000     0.0989342000
    3      C      -3.7581760000    -0.3980875000     1.1361054000
    4      C      -2.6308485000     0.4706889000     1.0856146000
    5      C      -2.4940250000     1.2878125000    -0.0557726000
    6      C      -3.3860929000     1.2825095000    -1.1097213000
    7      C      -1.6541549000     0.5615806000     2.0774191000
    8      C      -0.5871520000     1.4326939000     1.9557380000
    9      C      -0.4831709000     2.2427245000     0.8110911000
   10      O      -1.4366156000     2.1298805000    -0.1255499000
   11      C       0.5443789000     3.1989296000     0.4707647000
   12      C       1.4289743000     3.7362203000     1.4269907000
   13      C       2.3764940000     4.6728857000     1.0666422000
   14      C       2.4776634000     5.0894605000    -0.2618740000
   15      C       1.6143208000     4.5657388000    -1.2292084000
   16      C       0.6614547000     3.6421865000    -0.8650164000
   17      O      -5.3480234000     0.4160023000    -2.0458433000
   18      H      -5.5182514000    -1.0791364000     0.1351204000
   19      O      -3.8745657000    -1.1726542000     2.2394437000
   20      H      -3.2477754000     1.9240880000    -1.9676021000
   21      H      -1.7155983000    -0.0642688000     2.9591809000
   22      O       0.3862180000     1.5118050000     2.8984807000
   23      H       1.3602585000     3.4401217000     2.4601008000
   24      H       3.0427995000     5.0915959000     1.8110213000
   25      O       3.3960513000     6.0015833000    -0.6686857000
   26      H       1.7062493000     4.8907868000    -2.2569920000
   27      H       0.0043605000     3.2427441000    -1.6233233000
   28      H      -6.0689378000    -0.2103214000    -1.8824310000
   29      H      -4.6673491000    -1.7266245000     2.1838046000
   30      H       0.1973805000     0.8984060000     3.6240292000
   31      H       3.9354023000     6.2958216000     0.0804817000
 ----------------------------------------------------------------

   15    -954.1269067181      6.91e-09  Convergence criterion met
 Total energy =  -954.12690672

             TDDFT Excitation Energies
 ---------------------------------------------------

 Excited state   1: excitation energy (eV) =        1.6434
 Total energy for state   1:                  -954.06651253 au
    Multiplicity: Triplet
    Trans. Mom.:  0.0000 X   0.0000 Y   0.0000 Z
    Strength   :     0.0000000000
    X: D(   66) --> V(    1) amplitude =  0.1871
    X: D(   66) --> V(    9) amplitude = -0.0795
    X: D(   67) --> V(    1) amplitude = -0.1008
    X: D(   67) --> V(    2) amplitude =  0.0836
    X: D(   69) --> V(    1) amplitude =  0.0996
    X: D(   69) --> V(    4) amplitude = -0.0992
    X: D(   70) --> V(    1) amplitude =  0.9722
    Y: D(   70) --> V(    1) amplitude =  0.1924

 Excited state   2: excitation energy (eV) =        2.7029
 Total energy for state   2:                  -954.02757530 au
    Multiplicity: Triplet
    Trans. Mom.:  0.0000 X   0.0000 Y   0.0000 Z
    Strength   :     0.0000000000
    X: D(   65) --> V(    1) amplitude =  0.1100
    X: D(   67) --> V(    4) amplitude = -0.1537
    X: D(   68) --> V(    3) amplitude = -0.1121
    X: D(   69) --> V(    1) amplitude =  0.8737
    Y: D(   69) --> V(    1) amplitude =  0.0821
    X: D(   69) --> V(    9) amplitude =  0.1006
    X: D(   70) --> V(    1) amplitude = -0.1004
    X: D(   70) --> V(    2) amplitude = -0.3516
    Y: D(   70) --> V(    2) amplitude = -0.0769
    X: D(   70) --> V(    4) amplitude = -0.1376

 Excited state   3: excitation energy (eV) =        2.7878
 Total energy for state   3:                  -954.02445527 au
    Multiplicity: Singlet
    Trans. Mom.: -2.5456 X  -1.9954 Y   0.1790 Z
    Strength   :     0.7167386552
    X: D(   69) --> V(    1) amplitude =  0.1625
    X: D(   70) --> V(    1) amplitude =  0.9770

 Excited state   4: excitation energy (eV) =        3.4428
 Total energy for state   4:                  -954.00038438 au
    Multiplicity: Triplet
    Trans. Mom.:  0.0000 X   0.0000 Y   0.0000 Z
    Strength   :     0.0000000000
    X: D(   63) --> V(    1) amplitude = -0.1524
    X: D(   66) --> V(    1) amplitude = -0.1256
    X: D(   67) --> V(    1) amplitude =  0.8224
    Y: D(   67) --> V(    1) amplitude =  0.0709
    X: D(   67) --> V(    9) amplitude =  0.0787
    X: D(   68) --> V(    3) amplitude =  0.1412
    X: D(   69) --> V(    1) amplitude =  0.1248
    X: D(   69) --> V(    2) amplitude = -0.2062
    X: D(   69) --> V(    3) amplitude =  0.0811
    X: D(   69) --> V(    4) amplitude = -0.2559
    X: D(   70) --> V(    2) amplitude =  0.2236
    X: D(   70) --> V(    8) amplitude =  0.0911
    X: D(   70) --> V(    9) amplitude =  0.1653

 Excited state   5: excitation energy (eV) =        3.5436
 Total energy for state   5:                  -953.99668224 au
    Multiplicity: Singlet
    Trans. Mom.:  1.1531 X   0.8386 Y   0.0068 Z
    Strength   :     0.1764942926
    X: D(   66) --> V(    1) amplitude = -0.0734
    X: D(   67) --> V(    1) amplitude =  0.1503
    X: D(   69) --> V(    1) amplitude =  0.9532
    X: D(   69) --> V(    2) amplitude = -0.0730
    X: D(   70) --> V(    1) amplitude = -0.1532
    X: D(   70) --> V(    2) amplitude = -0.1300

 Excited state   6: excitation energy (eV) =        3.7183
 Total energy for state   6:                  -953.99026028 au
    Multiplicity: Triplet
    Trans. Mom.:  0.0000 X   0.0000 Y   0.0000 Z
    Strength   :     0.0000000000
    X: D(   65) --> V(    1) amplitude = -0.0719
    X: D(   66) --> V(    2) amplitude =  0.0956
    X: D(   66) --> V(   25) amplitude =  0.0986
    X: D(   67) --> V(    1) amplitude = -0.1624
    X: D(   67) --> V(    2) amplitude = -0.2077
    X: D(   67) --> V(    9) amplitude =  0.0838
    X: D(   68) --> V(    1) amplitude = -0.3598
    X: D(   68) --> V(    2) amplitude = -0.0943
    X: D(   68) --> V(    3) amplitude =  0.1753
    X: D(   69) --> V(    1) amplitude =  0.3314
    X: D(   69) --> V(    2) amplitude =  0.1035
    X: D(   69) --> V(    9) amplitude = -0.0857
    X: D(   70) --> V(    2) amplitude =  0.7334
    Y: D(   70) --> V(    2) amplitude =  0.0802
    X: D(   70) --> V(    9) amplitude = -0.0935

 Excited state   7: excitation energy (eV) =        3.7532
 Total energy for state   7:                  -953.98897733 au
    Multiplicity: Triplet
    Trans. Mom.:  0.0000 X   0.0000 Y   0.0000 Z
    Strength   :     0.0000000000
    X: D(   67) --> V(    1) amplitude = -0.0853
    X: D(   67) --> V(    2) amplitude = -0.1125
    X: D(   68) --> V(    1) amplitude =  0.8417
    X: D(   68) --> V(    2) amplitude =  0.2475
    X: D(   68) --> V(    3) amplitude = -0.0779
    X: D(   68) --> V(    4) amplitude =  0.1526
    X: D(   68) --> V(    9) amplitude =  0.1273
    X: D(   69) --> V(    1) amplitude =  0.1278
    X: D(   70) --> V(    2) amplitude =  0.3197

 Excited state   8: excitation energy (eV) =        3.9317
 Total energy for state   8:                  -953.98241923 au
    Multiplicity: Triplet
    Trans. Mom.:  0.0000 X   0.0000 Y   0.0000 Z
    Strength   :     0.0000000000
    X: D(   55) --> V(    1) amplitude =  0.1179
    X: D(   64) --> V(    1) amplitude =  0.0805
    X: D(   65) --> V(    1) amplitude =  0.2804
    X: D(   66) --> V(    1) amplitude =  0.7446
    X: D(   66) --> V(    2) amplitude = -0.1362
    X: D(   67) --> V(    1) amplitude =  0.2424
    X: D(   67) --> V(    2) amplitude = -0.1717
    X: D(   68) --> V(    3) amplitude = -0.1107
    X: D(   69) --> V(    4) amplitude =  0.2493
    X: D(   70) --> V(    4) amplitude =  0.1589
    X: D(   70) --> V(    8) amplitude = -0.1330
    X: D(   70) --> V(    9) amplitude = -0.2392

 Excited state   9: excitation energy (eV) =        4.1080
 Total energy for state   9:                  -953.97593934 au
    Multiplicity: Triplet
    Trans. Mom.:  0.0000 X   0.0000 Y   0.0000 Z
    Strength   :     0.0000000000
    X: D(   65) --> V(    1) amplitude = -0.0859
    X: D(   65) --> V(    2) amplitude =  0.0778
    X: D(   66) --> V(    1) amplitude =  0.1795
    X: D(   66) --> V(    2) amplitude = -0.0812
    X: D(   66) --> V(    4) amplitude =  0.0995
    X: D(   67) --> V(    1) amplitude =  0.1089
    X: D(   67) --> V(    2) amplitude =  0.0938
    X: D(   67) --> V(    4) amplitude = -0.2180
    X: D(   68) --> V(    3) amplitude = -0.3146
    X: D(   68) --> V(    4) amplitude = -0.0799
    X: D(   69) --> V(    1) amplitude = -0.1494
    X: D(   69) --> V(    2) amplitude =  0.5445
    X: D(   69) --> V(    3) amplitude =  0.0875
    X: D(   69) --> V(    4) amplitude = -0.4811
    X: D(   69) --> V(    9) amplitude =  0.0956
    X: D(   69) --> V(   25) amplitude = -0.0790
    X: D(   70) --> V(    2) amplitude =  0.1195
    X: D(   70) --> V(    4) amplitude = -0.3459

 Excited state  10: excitation energy (eV) =        4.3076
 Total energy for state  10:                  -953.96860667 au
    Multiplicity: Singlet
    Trans. Mom.: -0.1964 X  -0.0887 Y  -0.2920 Z
    Strength   :     0.0139008097
    X: D(   67) --> V(    3) amplitude = -0.0755
    X: D(   68) --> V(    1) amplitude =  0.9416
    X: D(   68) --> V(    2) amplitude =  0.1657
    X: D(   68) --> V(    4) amplitude =  0.1071
    X: D(   69) --> V(    3) amplitude =  0.1175
    X: D(   70) --> V(    3) amplitude = -0.2006

 Excited state  11: excitation energy (eV) =        4.5244
 Total energy for state  11:                  -953.96063686 au
    Multiplicity: Singlet
    Trans. Mom.: -0.4252 X  -0.5757 Y   0.4489 Z
    Strength   :     0.0791226891
    X: D(   63) --> V(    1) amplitude = -0.1012
    X: D(   67) --> V(    1) amplitude =  0.8480
    X: D(   69) --> V(    1) amplitude = -0.1972
    X: D(   69) --> V(    2) amplitude = -0.3219
    X: D(   70) --> V(    2) amplitude = -0.2686
    X: D(   70) --> V(    4) amplitude =  0.1517

 Excited state  12: excitation energy (eV) =        4.9856
 Total energy for state  12:                  -953.94369087 au
    Multiplicity: Singlet
    Trans. Mom.:  0.5006 X  -0.3735 Y   1.1006 Z
    Strength   :     0.1956123297
    X: D(   66) --> V(    1) amplitude = -0.3158
    X: D(   67) --> V(    1) amplitude =  0.3336
    X: D(   67) --> V(    4) amplitude =  0.1236
    X: D(   68) --> V(    3) amplitude =  0.0854
    X: D(   69) --> V(    2) amplitude =  0.0989
    X: D(   69) --> V(    9) amplitude = -0.1071
    X: D(   70) --> V(    2) amplitude =  0.8222
    X: D(   70) --> V(    3) amplitude =  0.0890
    X: D(   70) --> V(    4) amplitude = -0.1562

 Excited state  13: excitation energy (eV) =        5.3114
 Total energy for state  13:                  -953.93171465 au
    Multiplicity: Singlet
    Trans. Mom.:  0.2067 X  -0.2949 Y   0.4774 Z
    Strength   :     0.0465304460
    X: D(   65) --> V(    1) amplitude =  0.1322
    X: D(   66) --> V(    1) amplitude =  0.8005
    X: D(   67) --> V(    1) amplitude =  0.0759
    X: D(   67) --> V(    3) amplitude =  0.1040
    X: D(   68) --> V(    1) amplitude =  0.1391
    X: D(   69) --> V(    2) amplitude = -0.1440
    X: D(   69) --> V(    3) amplitude = -0.1656
    X: D(   70) --> V(    2) amplitude =  0.2923
    X: D(   70) --> V(    3) amplitude =  0.2910
    X: D(   70) --> V(    4) amplitude =  0.2337

 Excited state  14: excitation energy (eV) =        5.4048
 Total energy for state  14:                  -953.92828279 au
    Multiplicity: Singlet
    Trans. Mom.:  1.1163 X   0.2733 Y   1.2521 Z
    Strength   :     0.3825114615
    X: D(   66) --> V(    1) amplitude =  0.4183
    X: D(   67) --> V(    1) amplitude =  0.1881
    X: D(   67) --> V(    3) amplitude = -0.1913
    X: D(   68) --> V(    1) amplitude = -0.2413
    X: D(   68) --> V(    2) amplitude =  0.1446
    X: D(   68) --> V(    4) amplitude =  0.0809
    X: D(   68) --> V(    9) amplitude =  0.1255
    X: D(   69) --> V(    2) amplitude =  0.2885
    X: D(   69) --> V(    3) amplitude =  0.2689
    X: D(   69) --> V(    9) amplitude = -0.0725
    X: D(   70) --> V(    2) amplitude =  0.1015
    X: D(   70) --> V(    3) amplitude = -0.6263
    X: D(   70) --> V(    4) amplitude = -0.2278

 ---------------------------------------------------

                    Orbital Energies (a.u.)
 --------------------------------------------------------------

 Alpha MOs
 -- Occupied --
-19.3236 -19.2581 -19.2570 -19.2565 -19.2500 -10.3886 -10.3658 -10.3567
-10.3563 -10.3552 -10.3394 -10.3153 -10.3002 -10.2861 -10.2774 -10.2771
-10.2722 -10.2667 -10.2634 -10.2624  -1.2512  -1.1757  -1.1752  -1.1715
 -1.1641  -0.9890  -0.9696  -0.9406  -0.9041  -0.8625  -0.8547  -0.8437
 -0.7866  -0.7840  -0.7338  -0.7236  -0.7169  -0.6930  -0.6618  -0.6489
 -0.6390  -0.6328  -0.6104  -0.5992  -0.5947  -0.5753  -0.5611  -0.5508
 -0.5414  -0.5282  -0.5203  -0.5162  -0.5088  -0.5059  -0.5054  -0.4954
 -0.4935  -0.4816  -0.4747  -0.4635  -0.4510  -0.4475  -0.4444  -0.4182
 -0.4165  -0.3780  -0.3404  -0.3371  -0.3099  -0.2792

                    Cartesian Multipole Moments
                  LMN = < X^L Y^M Z^N >

 Total job time:  3562.38s(wall), 46312.06s(cpu)
        *  Thank you very much for using Q-Chem.  Have a nice day.  *
