 Q-Chem 6.2, Q-Chem, Inc., Pleasanton, CA (2024)
 Q-Chem 6.2.0 for Intel X86 EM64T Linux

User input:
--------------------------------------------------------------
$comment
TDDFT calculation of peonidin Q4 structure
nprocs=16
mem=64gb
$end

$molecule
0 1
C   -4.9573357    1.1409292   -0.2814374
C   -4.8546131   -0.1038617    0.4499564
C   -3.6865075   -0.5179838    1.0099864
C   -2.4983616    0.2794171    0.8980331
C   -2.6149437    1.5032927    0.1740061
C   -3.7757118    1.9376950   -0.3995148
C   -1.2756108   -0.0477548    1.4371716
C   -0.1628693    0.7899667    1.2883096
C   -0.2887715    1.9743864    0.5810887
O   -1.5006345    2.2742269    0.0490554
C    0.7074343    3.0044311    0.3339447
C    0.2787267    4.2800500   -0.0939164
C    1.1931473    5.2850166   -0.3359198
C    2.5690436    5.0372309   -0.1676820
C    2.9975786    3.7856091    0.2423685
C    2.0815692    2.7765153    0.4979227
O   -6.0636848    1.4987504   -0.7931150
H   -5.7462725   -0.7130440    0.5418566
O   -3.5533287   -1.6846449    1.7016104
H   -3.8098162    2.8743630   -0.9389546
H   -1.1570681   -0.9643033    2.0024666
O    1.0364509    0.4628493    1.8566317
H   -0.7739038    4.4750766   -0.2205396
O    0.8888661    6.5546626   -0.7329897
O    3.4836964    6.0186849   -0.4046374
H    2.4433754    1.8109232    0.8071656
H   -4.4008959   -2.1528479    1.7187088
H    0.9508658   -0.3743634    2.3346950
H    3.0193880    6.8206787   -0.6921022
C   -0.4871202    6.8966382   -0.9311340
H   -0.4914812    7.9397430   -1.2364446
H   -1.0524946    6.7825677   -0.0042936
H   -0.9301303    6.2811932   -1.7161745
H    4.0585835    3.6076163    0.3604577
$end

$rem
BASIS  =  def2-ma-TZVP
MEM_STATIC  =  2000
MEM_TOTAL  =  64000
METHOD  =  CAM-B3LYP
SOLVENT_METHOD = pcm
SYMMETRY_IGNORE  =  1
CIS_N_ROOTS = 7
CIS_SINGLETS = true
CIS_TRIPLETS = true
CISTR_PRINT = true
RPA = true
PRINT_ORBITALS = true
SCF_PRINT = 1
SCF_FINAL_PRINT = 2
PRINT_GENERAL_BASIS = true
CISTR_PRINT = true
PRINT_RADII_GYRE = true
MULTIPOLE_ORDER = 5
CIS_AMPL_PRINT = 5
CIS_AMPL_ANAL = true
STATE_ANALYSIS = true
$end

$pcm
Theory   CPCM
Method   SWIG
Solver   Inversion
Radii    Bondi
$end

$solvent
Dielectric         78.39
OpticalDielectric  1.777849
$end

--------------------------------------------------------------

             Standard Nuclear Orientation (Angstroms)
    I     Atom           X                Y                Z
 ----------------------------------------------------------------
    1      C      -4.9573357000     1.1409292000    -0.2814374000
    2      C      -4.8546131000    -0.1038617000     0.4499564000
    3      C      -3.6865075000    -0.5179838000     1.0099864000
    4      C      -2.4983616000     0.2794171000     0.8980331000
    5      C      -2.6149437000     1.5032927000     0.1740061000
    6      C      -3.7757118000     1.9376950000    -0.3995148000
    7      C      -1.2756108000    -0.0477548000     1.4371716000
    8      C      -0.1628693000     0.7899667000     1.2883096000
    9      C      -0.2887715000     1.9743864000     0.5810887000
   10      O      -1.5006345000     2.2742269000     0.0490554000
   11      C       0.7074343000     3.0044311000     0.3339447000
   12      C       0.2787267000     4.2800500000    -0.0939164000
   13      C       1.1931473000     5.2850166000    -0.3359198000
   14      C       2.5690436000     5.0372309000    -0.1676820000
   15      C       2.9975786000     3.7856091000     0.2423685000
   16      C       2.0815692000     2.7765153000     0.4979227000
   17      O      -6.0636848000     1.4987504000    -0.7931150000
   18      H      -5.7462725000    -0.7130440000     0.5418566000
   19      O      -3.5533287000    -1.6846449000     1.7016104000
   20      H      -3.8098162000     2.8743630000    -0.9389546000
   21      H      -1.1570681000    -0.9643033000     2.0024666000
   22      O       1.0364509000     0.4628493000     1.8566317000
   23      H      -0.7739038000     4.4750766000    -0.2205396000
   24      O       0.8888661000     6.5546626000    -0.7329897000
   25      O       3.4836964000     6.0186849000    -0.4046374000
   26      H       2.4433754000     1.8109232000     0.8071656000
   27      H      -4.4008959000    -2.1528479000     1.7187088000
   28      H       0.9508658000    -0.3743634000     2.3346950000
   29      H       3.0193880000     6.8206787000    -0.6921022000
   30      C      -0.4871202000     6.8966382000    -0.9311340000
   31      H      -0.4914812000     7.9397430000    -1.2364446000
   32      H      -1.0524946000     6.7825677000    -0.0042936000
   33      H      -0.9301303000     6.2811932000    -1.7161745000
   34      H       4.0585835000     3.6076163000     0.3604577000
 ----------------------------------------------------------------

   16   -1068.1993367072      5.69e-09  Convergence criterion met
 Total energy = -1068.19933671

             TDDFT Excitation Energies
 ---------------------------------------------------

 Excited state   1: excitation energy (eV) =        1.2919
 Total energy for state   1:                 -1068.15186110 au
    Multiplicity: Triplet
    Trans. Mom.:  0.0000 X   0.0000 Y   0.0000 Z
    Strength   :     0.0000000000
    X: D(   72) --> V(    1) amplitude = -0.0732
    X: D(   73) --> V(    1) amplitude =  0.1169
    X: D(   74) --> V(    2) amplitude =  0.0820
    X: D(   76) --> V(    1) amplitude =  0.0729
    X: D(   77) --> V(    1) amplitude =  0.1429
    X: D(   77) --> V(    2) amplitude =  0.1070
    X: D(   78) --> V(    1) amplitude =  0.9934
    Y: D(   78) --> V(    1) amplitude =  0.2658

 Excited state   2: excitation energy (eV) =        2.5813
 Total energy for state   2:                 -1068.10447590 au
    Multiplicity: Singlet
    Trans. Mom.:  2.7531 X   1.5122 Y  -0.0110 Z
    Strength   :     0.6239374218
    X: D(   76) --> V(    1) amplitude = -0.1178
    X: D(   77) --> V(    1) amplitude =  0.1483
    X: D(   78) --> V(    1) amplitude =  0.9739

 Excited state   3: excitation energy (eV) =        2.7335
 Total energy for state   3:                 -1068.09888206 au
    Multiplicity: Triplet
    Trans. Mom.:  0.0000 X   0.0000 Y   0.0000 Z
    Strength   :     0.0000000000
    X: D(   72) --> V(    1) amplitude =  0.0883
    X: D(   73) --> V(    1) amplitude = -0.0808
    X: D(   74) --> V(    1) amplitude =  0.0888
    X: D(   74) --> V(    4) amplitude = -0.1299
    X: D(   76) --> V(    1) amplitude = -0.3825
    X: D(   76) --> V(    2) amplitude = -0.0982
    X: D(   76) --> V(    7) amplitude = -0.1088
    X: D(   77) --> V(    1) amplitude =  0.6977
    X: D(   77) --> V(    7) amplitude = -0.1399
    X: D(   77) --> V(   11) amplitude =  0.0878
    X: D(   78) --> V(    2) amplitude =  0.4934
    Y: D(   78) --> V(    2) amplitude =  0.0918

 Excited state   4: excitation energy (eV) =        2.9348
 Total energy for state   4:                 -1068.09148299 au
    Multiplicity: Triplet
    Trans. Mom.:  0.0000 X   0.0000 Y   0.0000 Z
    Strength   :     0.0000000000
    X: D(   71) --> V(    1) amplitude = -0.0772
    X: D(   72) --> V(    1) amplitude = -0.0819
    X: D(   73) --> V(    1) amplitude = -0.1360
    X: D(   74) --> V(    1) amplitude =  0.3850
    X: D(   74) --> V(    7) amplitude =  0.0788
    X: D(   75) --> V(    1) amplitude = -0.0707
    X: D(   76) --> V(    1) amplitude =  0.7455
    Y: D(   76) --> V(    1) amplitude =  0.0774
    X: D(   76) --> V(    2) amplitude =  0.0786
    X: D(   76) --> V(    4) amplitude =  0.1110
    X: D(   76) --> V(    7) amplitude =  0.1953
    X: D(   76) --> V(    8) amplitude =  0.0766
    X: D(   76) --> V(   11) amplitude =  0.0850
    X: D(   77) --> V(    1) amplitude =  0.1585
    X: D(   77) --> V(    2) amplitude = -0.1169
    X: D(   77) --> V(    7) amplitude = -0.1365
    X: D(   78) --> V(    2) amplitude =  0.2695
    X: D(   78) --> V(    7) amplitude =  0.1030

 Excited state   5: excitation energy (eV) =        3.4845
 Total energy for state   5:                 -1068.07128251 au
    Multiplicity: Triplet
    Trans. Mom.:  0.0000 X   0.0000 Y   0.0000 Z
    Strength   :     0.0000000000
    X: D(   71) --> V(    1) amplitude =  0.1103
    X: D(   73) --> V(    1) amplitude = -0.2748
    X: D(   74) --> V(    1) amplitude =  0.2752
    X: D(   76) --> V(    1) amplitude = -0.1816
    X: D(   76) --> V(    7) amplitude =  0.0831
    X: D(   77) --> V(    1) amplitude = -0.4755
    X: D(   77) --> V(    2) amplitude =  0.3896
    X: D(   78) --> V(    1) amplitude =  0.0965
    X: D(   78) --> V(    2) amplitude =  0.4723
    X: D(   78) --> V(    4) amplitude = -0.1512
    X: D(   78) --> V(    7) amplitude = -0.2142
    X: D(   78) --> V(   10) amplitude =  0.0959
    X: D(   78) --> V(   11) amplitude =  0.1753
    X: D(   78) --> V(   13) amplitude =  0.0779

 Excited state   6: excitation energy (eV) =        3.6478
 Total energy for state   6:                 -1068.06528248 au
    Multiplicity: Singlet
    Trans. Mom.: -1.2917 X  -0.7882 Y   0.0434 Z
    Strength   :     0.2047906092
    X: D(   73) --> V(    1) amplitude = -0.1319
    X: D(   76) --> V(    1) amplitude = -0.5831
    X: D(   76) --> V(    2) amplitude = -0.1158
    X: D(   77) --> V(    1) amplitude =  0.7538
    X: D(   78) --> V(    1) amplitude = -0.1776
    X: D(   78) --> V(    2) amplitude =  0.1220

 Excited state   7: excitation energy (eV) =        3.7402
 Total energy for state   7:                 -1068.06188572 au
    Multiplicity: Triplet
    Trans. Mom.:  0.0000 X   0.0000 Y   0.0000 Z
    Strength   :     0.0000000000
    X: D(   74) --> V(    1) amplitude =  0.0869
    X: D(   74) --> V(    2) amplitude =  0.1003
    X: D(   75) --> V(    1) amplitude =  0.8724
    X: D(   75) --> V(    2) amplitude =  0.3392
    X: D(   75) --> V(   10) amplitude =  0.1068
    X: D(   75) --> V(   11) amplitude =  0.2219
    X: D(   75) --> V(   29) amplitude =  0.1046

 Excited state   8: excitation energy (eV) =        3.7610
 Total energy for state   8:                 -1068.06112308 au
    Multiplicity: Triplet
    Trans. Mom.:  0.0000 X   0.0000 Y   0.0000 Z
    Strength   :     0.0000000000
    X: D(   67) --> V(    1) amplitude = -0.0826
    X: D(   73) --> V(    1) amplitude =  0.2374
    X: D(   74) --> V(    1) amplitude =  0.5029
    X: D(   74) --> V(    2) amplitude = -0.2907
    X: D(   74) --> V(    3) amplitude =  0.1180
    X: D(   74) --> V(    4) amplitude = -0.3184
    X: D(   74) --> V(   11) amplitude =  0.0845
    X: D(   75) --> V(    2) amplitude =  0.0990
    X: D(   76) --> V(    1) amplitude = -0.2501
    X: D(   76) --> V(    2) amplitude =  0.1348
    X: D(   76) --> V(    3) amplitude = -0.0735
    X: D(   76) --> V(    4) amplitude =  0.1913
    X: D(   77) --> V(    1) amplitude = -0.1851
    X: D(   77) --> V(    2) amplitude = -0.1724
    X: D(   77) --> V(    3) amplitude = -0.1137
    X: D(   77) --> V(    4) amplitude =  0.2807
    X: D(   78) --> V(    2) amplitude = -0.1571
    X: D(   78) --> V(    7) amplitude =  0.2447
    X: D(   78) --> V(    8) amplitude =  0.0821
    X: D(   78) --> V(   10) amplitude = -0.0855
    X: D(   78) --> V(   11) amplitude = -0.1358

 Excited state   9: excitation energy (eV) =        3.8910
 Total energy for state   9:                 -1068.05634351 au
    Multiplicity: Triplet
    Trans. Mom.:  0.0000 X   0.0000 Y   0.0000 Z
    Strength   :     0.0000000000
    X: D(   60) --> V(    1) amplitude =  0.0708
    X: D(   72) --> V(    1) amplitude = -0.1646
    X: D(   73) --> V(    1) amplitude = -0.4642
    X: D(   73) --> V(    2) amplitude = -0.1667
    X: D(   74) --> V(    1) amplitude =  0.4468
    X: D(   74) --> V(    4) amplitude =  0.1284
    X: D(   76) --> V(    1) amplitude = -0.1743
    X: D(   76) --> V(    7) amplitude =  0.1018
    X: D(   77) --> V(    1) amplitude =  0.2647
    X: D(   77) --> V(    2) amplitude =  0.2013
    X: D(   77) --> V(    4) amplitude = -0.1120
    X: D(   77) --> V(    7) amplitude =  0.1103
    X: D(   77) --> V(   11) amplitude = -0.1001
    X: D(   78) --> V(    2) amplitude = -0.4830
    X: D(   78) --> V(    4) amplitude =  0.0939
    X: D(   78) --> V(   11) amplitude =  0.0749

 Excited state  10: excitation energy (eV) =        4.0167
 Total energy for state  10:                 -1068.05172410 au
    Multiplicity: Singlet
    Trans. Mom.: -0.0122 X   0.0208 Y  -0.0234 Z
    Strength   :     0.0001112627
    X: D(   74) --> V(    1) amplitude =  0.1565
    X: D(   75) --> V(    1) amplitude =  0.8980
    X: D(   75) --> V(    2) amplitude =  0.3075
    X: D(   75) --> V(   10) amplitude =  0.0897
    X: D(   75) --> V(   11) amplitude =  0.1862
    X: D(   75) --> V(   29) amplitude =  0.0815

 Excited state  11: excitation energy (eV) =        4.1052
 Total energy for state  11:                 -1068.04847307 au
    Multiplicity: Singlet
    Trans. Mom.: -0.0469 X  -0.3976 Y   0.2529 Z
    Strength   :     0.0225523621
    X: D(   74) --> V(    1) amplitude = -0.1059
    X: D(   74) --> V(    2) amplitude =  0.1104
    X: D(   74) --> V(    7) amplitude =  0.0789
    X: D(   75) --> V(    1) amplitude =  0.0792
    X: D(   76) --> V(    1) amplitude =  0.7240
    X: D(   77) --> V(    1) amplitude =  0.5789
    X: D(   77) --> V(    2) amplitude = -0.1881
    X: D(   77) --> V(    4) amplitude = -0.0806
    X: D(   78) --> V(    2) amplitude = -0.1285
    X: D(   78) --> V(    4) amplitude =  0.1543

 Excited state  12: excitation energy (eV) =        4.4266
 Total energy for state  12:                 -1068.03666117 au
    Multiplicity: Singlet
    Trans. Mom.: -0.1846 X  -0.6343 Y   0.2175 Z
    Strength   :     0.0524569063
    X: D(   73) --> V(    1) amplitude = -0.0895
    X: D(   74) --> V(    1) amplitude =  0.8483
    X: D(   74) --> V(    2) amplitude = -0.1205
    X: D(   75) --> V(    1) amplitude = -0.1411
    X: D(   76) --> V(    2) amplitude =  0.1360
    X: D(   77) --> V(    1) amplitude =  0.1201
    X: D(   77) --> V(    4) amplitude =  0.1437
    X: D(   78) --> V(    2) amplitude = -0.3225
    X: D(   78) --> V(    4) amplitude = -0.0923
    X: D(   78) --> V(    7) amplitude =  0.1766
    X: D(   78) --> V(    8) amplitude =  0.0721

 Excited state  13: excitation energy (eV) =        4.7657
 Total energy for state  13:                 -1068.02420005 au
    Multiplicity: Singlet
    Trans. Mom.:  0.9158 X  -1.1571 Y   0.9318 Z
    Strength   :     0.3556277328
    X: D(   73) --> V(    1) amplitude =  0.1189
    X: D(   74) --> V(    1) amplitude =  0.2981
    X: D(   76) --> V(    1) amplitude =  0.2344
    X: D(   76) --> V(    7) amplitude = -0.0864
    X: D(   77) --> V(    1) amplitude =  0.0737
    X: D(   77) --> V(    4) amplitude =  0.0714
    X: D(   77) --> V(    7) amplitude = -0.0885
    X: D(   78) --> V(    2) amplitude =  0.8278
    X: D(   78) --> V(    3) amplitude =  0.0911
    X: D(   78) --> V(    4) amplitude = -0.2210
    X: D(   78) --> V(    7) amplitude = -0.1553

 Excited state  14: excitation energy (eV) =        5.1197
 Total energy for state  14:                 -1068.01119182 au
    Multiplicity: Singlet
    Trans. Mom.: -0.3552 X   0.7452 Y  -0.3835 Z
    Strength   :     0.1039252202
    X: D(   73) --> V(    1) amplitude =  0.1868
    X: D(   74) --> V(    1) amplitude = -0.2088
    X: D(   74) --> V(    2) amplitude = -0.0893
    X: D(   74) --> V(    4) amplitude =  0.0999
    X: D(   74) --> V(    7) amplitude = -0.0915
    X: D(   76) --> V(    1) amplitude =  0.0940
    X: D(   77) --> V(    1) amplitude =  0.1434
    X: D(   77) --> V(    2) amplitude =  0.1686
    X: D(   77) --> V(    4) amplitude =  0.2186
    X: D(   77) --> V(    7) amplitude = -0.0902
    X: D(   77) --> V(   11) amplitude = -0.0877
    X: D(   78) --> V(    2) amplitude = -0.2765
    X: D(   78) --> V(    3) amplitude =  0.5171
    X: D(   78) --> V(    4) amplitude = -0.5747
    X: D(   78) --> V(    7) amplitude = -0.1469
    X: D(   78) --> V(    8) amplitude = -0.1089
    X: D(   78) --> V(   11) amplitude = -0.0738

 ---------------------------------------------------

                    Orbital Energies (a.u.)
 --------------------------------------------------------------

 Alpha MOs
 -- Occupied --
-19.2942 -19.2453 -19.2452 -19.2442 -19.2415 -19.1538 -10.3571 -10.3449
-10.3362 -10.3360 -10.3252 -10.3212 -10.3203 -10.2993 -10.2955 -10.2849
-10.2781 -10.2630 -10.2603 -10.2553 -10.2453 -10.2365  -1.2201  -1.1712
 -1.1603  -1.1593  -1.1427  -1.0769  -0.9664  -0.9534  -0.9206  -0.8773
 -0.8499  -0.8391  -0.8240  -0.7894  -0.7641  -0.7494  -0.7128  -0.7022
 -0.6932  -0.6506  -0.6395  -0.6370  -0.6202  -0.6043  -0.5882  -0.5808
 -0.5729  -0.5671  -0.5516  -0.5494  -0.5319  -0.5212  -0.5138  -0.5058
 -0.5023  -0.4971  -0.4936  -0.4893  -0.4832  -0.4789  -0.4665  -0.4573
 -0.4518  -0.4418  -0.4348  -0.4322  -0.4180  -0.4157  -0.4108  -0.3954
 -0.3557  -0.3152  -0.3140  -0.3042  -0.2897  -0.2481

                    Cartesian Multipole Moments
                  LMN = < X^L Y^M Z^N >

 Total job time:  8227.26s(wall), 117295.68s(cpu)
        *  Thank you very much for using Q-Chem.  Have a nice day.  *
