 Q-Chem 6.2, Q-Chem, Inc., Pleasanton, CA (2024)
 Q-Chem 6.2.0 for Intel X86 EM64T Linux

User input:
--------------------------------------------------------------
$comment
TDDFT calculation of peonidin Q1 structure
nprocs=16
mem=64gb
$end

$molecule
0 1
C   -4.9311757    1.2284675   -0.1030305
C   -4.8680605   -0.0385768    0.4921057
C   -3.6643921   -0.5088664    0.9780084
C   -2.4929992    0.2776743    0.8803312
C   -2.6164571    1.5386639    0.2823210
C   -3.8077681    2.0372601   -0.2138474
C   -1.2120388   -0.1122313    1.3353750
C   -0.1280729    0.7077089    1.1979290
C   -0.2698793    1.9973886    0.5970614
O   -1.5144813    2.3289294    0.1714845
C    0.6965355    3.0039031    0.3888134
C    0.2874917    4.2692161   -0.1457495
C    1.1807933    5.2775577   -0.3566000
C    2.5994343    5.1159957   -0.0616423
C    2.9778525    3.8388005    0.4598734
C    2.0795611    2.8335650    0.6809449
O   -6.1036359    1.7172183   -0.5981019
H   -5.7613166   -0.6475606    0.5668685
O   -3.5388657   -1.7305148    1.5644986
H   -3.8591551    3.0141304   -0.6722907
H   -1.0792158   -1.0778218    1.8068131
O    1.1072376    0.3382067    1.6387656
H   -0.7547258    4.4242275   -0.3732099
O    0.8585473    6.5114783   -0.8449395
O    3.4263097    6.0523202   -0.2577818
H    2.4342900    1.8962739    1.0728200
H   -6.8145799    1.0716228   -0.4757004
H   -4.3951369   -2.1823780    1.5785359
H    1.0573130   -0.5451534    2.0329131
C   -0.5104186    6.7799448   -1.1495695
H   -0.5415343    7.8076704   -1.5034548
H   -1.1369232    6.6803504   -0.2601292
H   -0.8767931    6.1126468   -1.9331157
H    4.0274398    3.6892119    0.6829703
$end

$rem
BASIS  =  def2-ma-TZVP
MEM_STATIC  =  2000
MEM_TOTAL  =  64000
METHOD  =  CAM-B3LYP
SOLVENT_METHOD = pcm
SYMMETRY_IGNORE  =  1
CIS_N_ROOTS = 7
CIS_SINGLETS = true
CIS_TRIPLETS = true
CISTR_PRINT = true
RPA = true
PRINT_ORBITALS = true
SCF_PRINT = 1
SCF_FINAL_PRINT = 2
PRINT_GENERAL_BASIS = true
CISTR_PRINT = true
PRINT_RADII_GYRE = true
MULTIPOLE_ORDER = 5
CIS_AMPL_PRINT = 5
CIS_AMPL_ANAL = true
STATE_ANALYSIS = true
$end

$pcm
Theory   CPCM
Method   SWIG
Solver   Inversion
Radii    Bondi
$end

$solvent
Dielectric         78.39
OpticalDielectric  1.777849
$end

--------------------------------------------------------------

             Standard Nuclear Orientation (Angstroms)
    I     Atom           X                Y                Z
 ----------------------------------------------------------------
    1      C      -4.9311757000     1.2284675000    -0.1030305000
    2      C      -4.8680605000    -0.0385768000     0.4921057000
    3      C      -3.6643921000    -0.5088664000     0.9780084000
    4      C      -2.4929992000     0.2776743000     0.8803312000
    5      C      -2.6164571000     1.5386639000     0.2823210000
    6      C      -3.8077681000     2.0372601000    -0.2138474000
    7      C      -1.2120388000    -0.1122313000     1.3353750000
    8      C      -0.1280729000     0.7077089000     1.1979290000
    9      C      -0.2698793000     1.9973886000     0.5970614000
   10      O      -1.5144813000     2.3289294000     0.1714845000
   11      C       0.6965355000     3.0039031000     0.3888134000
   12      C       0.2874917000     4.2692161000    -0.1457495000
   13      C       1.1807933000     5.2775577000    -0.3566000000
   14      C       2.5994343000     5.1159957000    -0.0616423000
   15      C       2.9778525000     3.8388005000     0.4598734000
   16      C       2.0795611000     2.8335650000     0.6809449000
   17      O      -6.1036359000     1.7172183000    -0.5981019000
   18      H      -5.7613166000    -0.6475606000     0.5668685000
   19      O      -3.5388657000    -1.7305148000     1.5644986000
   20      H      -3.8591551000     3.0141304000    -0.6722907000
   21      H      -1.0792158000    -1.0778218000     1.8068131000
   22      O       1.1072376000     0.3382067000     1.6387656000
   23      H      -0.7547258000     4.4242275000    -0.3732099000
   24      O       0.8585473000     6.5114783000    -0.8449395000
   25      O       3.4263097000     6.0523202000    -0.2577818000
   26      H       2.4342900000     1.8962739000     1.0728200000
   27      H      -6.8145799000     1.0716228000    -0.4757004000
   28      H      -4.3951369000    -2.1823780000     1.5785359000
   29      H       1.0573130000    -0.5451534000     2.0329131000
   30      C      -0.5104186000     6.7799448000    -1.1495695000
   31      H      -0.5415343000     7.8076704000    -1.5034548000
   32      H      -1.1369232000     6.6803504000    -0.2601292000
   33      H      -0.8767931000     6.1126468000    -1.9331157000
   34      H       4.0274398000     3.6892119000     0.6829703000
 ----------------------------------------------------------------

   16   -1068.1958125420      4.97e-09  Convergence criterion met
 Total energy = -1068.19581254

             TDDFT Excitation Energies
 ---------------------------------------------------

 Excited state   1: excitation energy (eV) =        1.0537
 Total energy for state   1:                 -1068.15709025 au
    Multiplicity: Triplet
    Trans. Mom.:  0.0000 X   0.0000 Y   0.0000 Z
    Strength   :     0.0000000000
    X: D(   73) --> V(    1) amplitude = -0.0830
    X: D(   73) --> V(   11) amplitude =  0.0712
    X: D(   74) --> V(    1) amplitude = -0.0836
    X: D(   74) --> V(    2) amplitude =  0.0905
    X: D(   77) --> V(    2) amplitude =  0.1011
    X: D(   77) --> V(    4) amplitude =  0.0858
    X: D(   78) --> V(    1) amplitude =  1.0373
    Y: D(   78) --> V(    1) amplitude =  0.3660

 Excited state   2: excitation energy (eV) =        2.5054
 Total energy for state   2:                 -1068.10373965 au
    Multiplicity: Triplet
    Trans. Mom.:  0.0000 X   0.0000 Y   0.0000 Z
    Strength   :     0.0000000000
    X: D(   73) --> V(    1) amplitude = -0.2059
    X: D(   73) --> V(   11) amplitude =  0.0854
    X: D(   74) --> V(    1) amplitude =  0.1866
    X: D(   74) --> V(    2) amplitude =  0.0803
    X: D(   74) --> V(    4) amplitude = -0.0913
    X: D(   76) --> V(    4) amplitude = -0.0952
    X: D(   77) --> V(    1) amplitude =  0.7960
    Y: D(   77) --> V(    1) amplitude =  0.1033
    X: D(   77) --> V(    2) amplitude =  0.1483
    X: D(   77) --> V(    4) amplitude =  0.1086
    X: D(   78) --> V(    2) amplitude =  0.4216
    Y: D(   78) --> V(    2) amplitude =  0.0764
    X: D(   78) --> V(    4) amplitude =  0.1298
    X: D(   78) --> V(   11) amplitude = -0.0865

 Excited state   3: excitation energy (eV) =        2.6126
 Total energy for state   3:                 -1068.09980161 au
    Multiplicity: Singlet
    Trans. Mom.: -3.2980 X  -2.6925 Y   0.4067 Z
    Strength   :     1.1708098459
    X: D(   77) --> V(    1) amplitude =  0.1070
    X: D(   78) --> V(    1) amplitude =  0.9852
    Y: D(   78) --> V(    1) amplitude = -0.0786

 Excited state   4: excitation energy (eV) =        3.0505
 Total energy for state   4:                 -1068.08370846 au
    Multiplicity: Triplet
    Trans. Mom.:  0.0000 X   0.0000 Y   0.0000 Z
    Strength   :     0.0000000000
    X: D(   63) --> V(    8) amplitude =  0.0856
    X: D(   71) --> V(    1) amplitude = -0.0829
    X: D(   74) --> V(    1) amplitude = -0.2107
    X: D(   74) --> V(    8) amplitude =  0.1075
    X: D(   76) --> V(    1) amplitude =  0.8353
    X: D(   76) --> V(    2) amplitude = -0.1838
    X: D(   76) --> V(    4) amplitude = -0.0958
    X: D(   76) --> V(   11) amplitude =  0.0958
    X: D(   77) --> V(    1) amplitude =  0.0732
    X: D(   77) --> V(    2) amplitude = -0.0979
    X: D(   77) --> V(    4) amplitude = -0.1130
    X: D(   77) --> V(    8) amplitude =  0.1079
    X: D(   78) --> V(    2) amplitude = -0.1500
    X: D(   78) --> V(    4) amplitude =  0.0725
    X: D(   78) --> V(    8) amplitude = -0.2842

 Excited state   5: excitation energy (eV) =        3.5132
 Total energy for state   5:                 -1068.06670316 au
    Multiplicity: Triplet
    Trans. Mom.:  0.0000 X   0.0000 Y   0.0000 Z
    Strength   :     0.0000000000
    X: D(   75) --> V(    1) amplitude =  0.8935
    X: D(   75) --> V(    2) amplitude = -0.2628
    X: D(   75) --> V(    4) amplitude = -0.1793
    X: D(   75) --> V(   11) amplitude =  0.2316
    X: D(   75) --> V(   18) amplitude =  0.1100
    X: D(   75) --> V(   29) amplitude =  0.0726

 Excited state   6: excitation energy (eV) =        3.5628
 Total energy for state   6:                 -1068.06488203 au
    Multiplicity: Triplet
    Trans. Mom.:  0.0000 X   0.0000 Y   0.0000 Z
    Strength   :     0.0000000000
    X: D(   73) --> V(    1) amplitude =  0.0890
    X: D(   74) --> V(    1) amplitude = -0.1540
    X: D(   74) --> V(    2) amplitude =  0.2590
    X: D(   74) --> V(    4) amplitude = -0.0907
    X: D(   74) --> V(   11) amplitude =  0.0800
    X: D(   76) --> V(    1) amplitude =  0.1655
    X: D(   76) --> V(    8) amplitude = -0.1035
    X: D(   77) --> V(    1) amplitude = -0.4306
    X: D(   77) --> V(    2) amplitude =  0.1914
    X: D(   77) --> V(   11) amplitude =  0.1263
    X: D(   77) --> V(   14) amplitude =  0.0741
    X: D(   78) --> V(    2) amplitude =  0.7427

 Excited state   7: excitation energy (eV) =        3.6588
 Total energy for state   7:                 -1068.06135301 au
    Multiplicity: Triplet
    Trans. Mom.:  0.0000 X   0.0000 Y   0.0000 Z
    Strength   :     0.0000000000
    X: D(   72) --> V(    1) amplitude = -0.0739
    X: D(   73) --> V(    1) amplitude = -0.2508
    X: D(   74) --> V(    1) amplitude =  0.6911
    X: D(   74) --> V(    4) amplitude =  0.1892
    X: D(   76) --> V(    1) amplitude =  0.1898
    X: D(   76) --> V(    2) amplitude =  0.0823
    X: D(   76) --> V(    4) amplitude =  0.1418
    X: D(   76) --> V(    8) amplitude =  0.1636
    X: D(   77) --> V(    1) amplitude = -0.2305
    X: D(   77) --> V(    2) amplitude = -0.1511
    X: D(   77) --> V(    4) amplitude = -0.3622
    X: D(   77) --> V(   11) amplitude = -0.0791
    X: D(   78) --> V(    2) amplitude =  0.1617
    X: D(   78) --> V(   11) amplitude = -0.1939

 Excited state   8: excitation energy (eV) =        3.6827
 Total energy for state   8:                 -1068.06047609 au
    Multiplicity: Singlet
    Trans. Mom.:  0.0398 X   0.2648 Y  -0.0867 Z
    Strength   :     0.0071486867
    X: D(   74) --> V(    1) amplitude = -0.1210
    X: D(   76) --> V(    1) amplitude =  0.2462
    X: D(   77) --> V(    1) amplitude =  0.9369
    X: D(   78) --> V(    1) amplitude = -0.1040
    X: D(   78) --> V(    2) amplitude =  0.0900

 Excited state   9: excitation energy (eV) =        3.8364
 Total energy for state   9:                 -1068.05482720 au
    Multiplicity: Singlet
    Trans. Mom.:  0.0396 X   0.0417 Y  -0.0057 Z
    Strength   :     0.0003135937
    X: D(   75) --> V(    1) amplitude =  0.9081
    X: D(   75) --> V(    2) amplitude = -0.2403
    X: D(   75) --> V(    4) amplitude = -0.1638
    X: D(   75) --> V(   11) amplitude =  0.2039
    X: D(   75) --> V(   18) amplitude =  0.0847
    X: D(   76) --> V(    1) amplitude = -0.1357

 Excited state  10: excitation energy (eV) =        3.8854
 Total energy for state  10:                 -1068.05302845 au
    Multiplicity: Singlet
    Trans. Mom.: -0.3234 X  -0.3348 Y   0.0615 Z
    Strength   :     0.0209892077
    X: D(   75) --> V(    1) amplitude =  0.1315
    X: D(   76) --> V(    1) amplitude =  0.9285
    X: D(   76) --> V(    2) amplitude = -0.0720
    X: D(   77) --> V(    1) amplitude = -0.2404
    X: D(   77) --> V(    2) amplitude = -0.1110
    X: D(   78) --> V(    2) amplitude = -0.0941
    X: D(   78) --> V(    4) amplitude =  0.0733

 Excited state  11: excitation energy (eV) =        4.0968
 Total energy for state  11:                 -1068.04525716 au
    Multiplicity: Triplet
    Trans. Mom.:  0.0000 X   0.0000 Y   0.0000 Z
    Strength   :     0.0000000000
    X: D(   68) --> V(    2) amplitude =  0.0822
    X: D(   72) --> V(    1) amplitude = -0.2405
    X: D(   73) --> V(    1) amplitude =  0.2082
    X: D(   73) --> V(    2) amplitude =  0.1099
    X: D(   73) --> V(    4) amplitude =  0.1330
    X: D(   74) --> V(    1) amplitude =  0.3347
    X: D(   74) --> V(    2) amplitude =  0.2148
    X: D(   74) --> V(    4) amplitude = -0.1254
    X: D(   74) --> V(    8) amplitude = -0.0917
    X: D(   74) --> V(   11) amplitude =  0.0720
    X: D(   76) --> V(    2) amplitude =  0.2048
    X: D(   76) --> V(    4) amplitude = -0.2022
    X: D(   76) --> V(    8) amplitude =  0.1186
    X: D(   77) --> V(    1) amplitude = -0.0910
    X: D(   77) --> V(    2) amplitude = -0.3507
    X: D(   77) --> V(    4) amplitude =  0.4812
    X: D(   77) --> V(    8) amplitude =  0.2164
    X: D(   77) --> V(   11) amplitude =  0.0882
    X: D(   78) --> V(    2) amplitude = -0.0821
    X: D(   78) --> V(    4) amplitude =  0.2305
    X: D(   78) --> V(    8) amplitude = -0.1100
    X: D(   78) --> V(   11) amplitude =  0.1712

 Excited state  12: excitation energy (eV) =        4.4357
 Total energy for state  12:                 -1068.03280306 au
    Multiplicity: Singlet
    Trans. Mom.: -0.0362 X   0.4371 Y  -0.2154 Z
    Strength   :     0.0259460225
    X: D(   74) --> V(    1) amplitude = -0.3230
    X: D(   74) --> V(    4) amplitude = -0.0800
    X: D(   77) --> V(    1) amplitude = -0.1612
    X: D(   77) --> V(    2) amplitude =  0.1610
    X: D(   77) --> V(   11) amplitude =  0.0858
    X: D(   78) --> V(    2) amplitude =  0.8835
    X: D(   78) --> V(    4) amplitude = -0.1288
    X: D(   78) --> V(   11) amplitude = -0.0759

 Excited state  13: excitation energy (eV) =        4.6137
 Total energy for state  13:                 -1068.02626376 au
    Multiplicity: Singlet
    Trans. Mom.:  0.1932 X   0.9800 Y  -0.3762 Z
    Strength   :     0.1287601472
    X: D(   73) --> V(    1) amplitude = -0.0984
    X: D(   74) --> V(    1) amplitude =  0.7581
    X: D(   74) --> V(    2) amplitude =  0.1351
    X: D(   76) --> V(    2) amplitude =  0.1627
    X: D(   76) --> V(    8) amplitude = -0.0735
    X: D(   77) --> V(    1) amplitude =  0.0737
    X: D(   77) --> V(    2) amplitude = -0.3315
    X: D(   77) --> V(    4) amplitude =  0.0998
    X: D(   78) --> V(    2) amplitude =  0.3860
    X: D(   78) --> V(    4) amplitude =  0.1877
    X: D(   78) --> V(    8) amplitude =  0.1338

 Excited state  14: excitation energy (eV) =        4.9833
 Total energy for state  14:                 -1068.01267844 au
    Multiplicity: Singlet
    Trans. Mom.:  0.1013 X  -0.1141 Y   0.0255 Z
    Strength   :     0.0029217710
    X: D(   73) --> V(    1) amplitude = -0.1173
    X: D(   74) --> V(    1) amplitude =  0.2677
    X: D(   74) --> V(    2) amplitude = -0.0789
    X: D(   74) --> V(    4) amplitude = -0.0761
    X: D(   74) --> V(    8) amplitude = -0.1084
    X: D(   76) --> V(    1) amplitude =  0.1356
    X: D(   76) --> V(   11) amplitude = -0.1006
    X: D(   77) --> V(    2) amplitude =  0.2713
    X: D(   77) --> V(    4) amplitude = -0.1073
    X: D(   77) --> V(    8) amplitude = -0.1688
    X: D(   78) --> V(    2) amplitude = -0.0850
    X: D(   78) --> V(    4) amplitude = -0.6899
    X: D(   78) --> V(    8) amplitude =  0.4820

 ---------------------------------------------------

                    Orbital Energies (a.u.)
 --------------------------------------------------------------

 Alpha MOs
 -- Occupied --
-19.2944 -19.2476 -19.2470 -19.2449 -19.2307 -19.1591 -10.3674 -10.3456
-10.3411 -10.3405 -10.3381 -10.3163 -10.3050 -10.2889 -10.2868 -10.2787
-10.2679 -10.2601 -10.2593 -10.2553 -10.2532 -10.2378  -1.2220  -1.1636
 -1.1626  -1.1579  -1.1477  -1.0788  -0.9714  -0.9454  -0.9178  -0.8822
 -0.8453  -0.8373  -0.8209  -0.7859  -0.7638  -0.7516  -0.7189  -0.6961
 -0.6827  -0.6637  -0.6454  -0.6333  -0.6220  -0.6025  -0.5858  -0.5727
 -0.5630  -0.5611  -0.5515  -0.5408  -0.5384  -0.5193  -0.5160  -0.5150
 -0.5045  -0.4957  -0.4934  -0.4850  -0.4819  -0.4810  -0.4743  -0.4635
 -0.4501  -0.4403  -0.4356  -0.4217  -0.4210  -0.4027  -0.3988  -0.3927
 -0.3625  -0.3220  -0.3140  -0.3041  -0.2878  -0.2389

                    Cartesian Multipole Moments
                  LMN = < X^L Y^M Z^N >

 Total job time:  4589.34s(wall), 63234.13s(cpu)
        *  Thank you very much for using Q-Chem.  Have a nice day.  *
