 Q-Chem 6.2, Q-Chem, Inc., Pleasanton, CA (2024)
 Q-Chem 6.2.0 for Intel X86 EM64T Linux

User input:
--------------------------------------------------------------
$comment
TDDFT calculation of peonidin Q3 structure
nprocs=16
mem=64gb
$end

$molecule
0 1
C   -4.9003226    1.1130015   -0.2233717
C   -4.8723499   -0.0902530    0.4678110
C   -3.6877761   -0.5727652    1.0689415
C   -2.5022691    0.2850205    0.9181873
C   -2.6093568    1.5040991    0.1975390
C   -3.7752563    1.9407258   -0.3773530
C   -1.2743437   -0.0353170    1.4528398
C   -0.1609618    0.7957634    1.3012395
C   -0.2890332    1.9816196    0.5901277
O   -1.4997856    2.2785452    0.0656696
C    0.7072197    3.0088695    0.3360300
C    0.2775860    4.2851397   -0.0893958
C    1.1925048    5.2866917   -0.3410388
C    2.5696208    5.0338549   -0.1859859
C    2.9984915    3.7815310    0.2222142
C    2.0818493    2.7761974    0.4884958
O   -6.0472244    1.5668130   -0.8030538
H   -5.7776539   -0.6804974    0.5481412
O   -3.6168408   -1.6704877    1.7050672
H   -3.8315688    2.8712294   -0.9224515
H   -1.1633664   -0.9533047    2.0192421
O    1.0402537    0.4720798    1.8643358
H   -0.7757366    4.4827904   -0.2060842
O    0.8893389    6.5565967   -0.7364994
O    3.4844730    6.0108727   -0.4337274
H    2.4429193    1.8097527    0.7959006
H   -6.7670406    0.9366808   -0.6517117
H    0.9582864   -0.3657209    2.3423514
H    3.0207212    6.8143079   -0.7183815
C   -0.4873762    6.9037633   -0.9206099
H   -0.4908834    7.9466391   -1.2266100
H   -1.0433472    6.7924104    0.0122052
H   -0.9406647    6.2893621   -1.7005688
H    4.0600234    3.6006482    0.3301244
$end

$rem
BASIS  =  def2-ma-TZVP
MEM_STATIC  =  2000
MEM_TOTAL  =  64000
METHOD  =  CAM-B3LYP
SOLVENT_METHOD = pcm
SYMMETRY_IGNORE  =  1
CIS_N_ROOTS = 7
CIS_SINGLETS = true
CIS_TRIPLETS = true
CISTR_PRINT = true
RPA = true
PRINT_ORBITALS = true
SCF_PRINT = 1
SCF_FINAL_PRINT = 2
PRINT_GENERAL_BASIS = true
CISTR_PRINT = true
PRINT_RADII_GYRE = true
MULTIPOLE_ORDER = 5
CIS_AMPL_PRINT = 5
CIS_AMPL_ANAL = true
STATE_ANALYSIS = true
$end

$pcm
Theory   CPCM
Method   SWIG
Solver   Inversion
Radii    Bondi
$end

$solvent
Dielectric         78.39
OpticalDielectric  1.777849
$end

--------------------------------------------------------------

             Standard Nuclear Orientation (Angstroms)
    I     Atom           X                Y                Z
 ----------------------------------------------------------------
    1      C      -4.9003226000     1.1130015000    -0.2233717000
    2      C      -4.8723499000    -0.0902530000     0.4678110000
    3      C      -3.6877761000    -0.5727652000     1.0689415000
    4      C      -2.5022691000     0.2850205000     0.9181873000
    5      C      -2.6093568000     1.5040991000     0.1975390000
    6      C      -3.7752563000     1.9407258000    -0.3773530000
    7      C      -1.2743437000    -0.0353170000     1.4528398000
    8      C      -0.1609618000     0.7957634000     1.3012395000
    9      C      -0.2890332000     1.9816196000     0.5901277000
   10      O      -1.4997856000     2.2785452000     0.0656696000
   11      C       0.7072197000     3.0088695000     0.3360300000
   12      C       0.2775860000     4.2851397000    -0.0893958000
   13      C       1.1925048000     5.2866917000    -0.3410388000
   14      C       2.5696208000     5.0338549000    -0.1859859000
   15      C       2.9984915000     3.7815310000     0.2222142000
   16      C       2.0818493000     2.7761974000     0.4884958000
   17      O      -6.0472244000     1.5668130000    -0.8030538000
   18      H      -5.7776539000    -0.6804974000     0.5481412000
   19      O      -3.6168408000    -1.6704877000     1.7050672000
   20      H      -3.8315688000     2.8712294000    -0.9224515000
   21      H      -1.1633664000    -0.9533047000     2.0192421000
   22      O       1.0402537000     0.4720798000     1.8643358000
   23      H      -0.7757366000     4.4827904000    -0.2060842000
   24      O       0.8893389000     6.5565967000    -0.7364994000
   25      O       3.4844730000     6.0108727000    -0.4337274000
   26      H       2.4429193000     1.8097527000     0.7959006000
   27      H      -6.7670406000     0.9366808000    -0.6517117000
   28      H       0.9582864000    -0.3657209000     2.3423514000
   29      H       3.0207212000     6.8143079000    -0.7183815000
   30      C      -0.4873762000     6.9037633000    -0.9206099000
   31      H      -0.4908834000     7.9466391000    -1.2266100000
   32      H      -1.0433472000     6.7924104000     0.0122052000
   33      H      -0.9406647000     6.2893621000    -1.7005688000
   34      H       4.0600234000     3.6006482000     0.3301244000
 ----------------------------------------------------------------

   16   -1068.1995164952      5.35e-09  Convergence criterion met
 Total energy = -1068.19951650

             TDDFT Excitation Energies
 ---------------------------------------------------

 Excited state   1: excitation energy (eV) =        1.3651
 Total energy for state   1:                 -1068.14934955 au
    Multiplicity: Triplet
    Trans. Mom.:  0.0000 X   0.0000 Y   0.0000 Z
    Strength   :     0.0000000000
    X: D(   72) --> V(    1) amplitude =  0.0732
    X: D(   73) --> V(    1) amplitude = -0.0750
    X: D(   74) --> V(    1) amplitude =  0.1056
    X: D(   76) --> V(    1) amplitude =  0.1650
    X: D(   77) --> V(    1) amplitude = -0.0733
    X: D(   77) --> V(    2) amplitude =  0.1033
    X: D(   78) --> V(    1) amplitude =  0.9780
    Y: D(   78) --> V(    1) amplitude =  0.2101

 Excited state   2: excitation energy (eV) =        2.3948
 Total energy for state   2:                 -1068.11150921 au
    Multiplicity: Singlet
    Trans. Mom.:  1.9452 X   1.5797 Y  -0.3037 Z
    Strength   :     0.3738288688
    X: D(   77) --> V(    1) amplitude =  0.1363
    X: D(   78) --> V(    1) amplitude =  0.9803
    X: D(   78) --> V(    2) amplitude =  0.0888

 Excited state   3: excitation energy (eV) =        2.4724
 Total energy for state   3:                 -1068.10865587 au
    Multiplicity: Triplet
    Trans. Mom.:  0.0000 X   0.0000 Y   0.0000 Z
    Strength   :     0.0000000000
    X: D(   72) --> V(    1) amplitude = -0.0854
    X: D(   73) --> V(    1) amplitude =  0.1090
    X: D(   74) --> V(    2) amplitude = -0.0816
    X: D(   74) --> V(    4) amplitude = -0.0775
    X: D(   74) --> V(    8) amplitude =  0.0714
    X: D(   76) --> V(    1) amplitude = -0.1606
    X: D(   76) --> V(    8) amplitude =  0.0717
    X: D(   77) --> V(    1) amplitude =  0.8461
    Y: D(   77) --> V(    1) amplitude =  0.0860
    X: D(   77) --> V(    8) amplitude =  0.0976
    X: D(   78) --> V(    1) amplitude =  0.1101
    X: D(   78) --> V(    2) amplitude =  0.4021
    Y: D(   78) --> V(    2) amplitude =  0.0718

 Excited state   4: excitation energy (eV) =        3.2439
 Total energy for state   4:                 -1068.08030664 au
    Multiplicity: Triplet
    Trans. Mom.:  0.0000 X   0.0000 Y   0.0000 Z
    Strength   :     0.0000000000
    X: D(   64) --> V(    1) amplitude =  0.0728
    X: D(   71) --> V(    1) amplitude = -0.1153
    X: D(   73) --> V(    1) amplitude = -0.0896
    X: D(   74) --> V(    1) amplitude =  0.3934
    X: D(   74) --> V(    4) amplitude = -0.0814
    X: D(   76) --> V(    1) amplitude =  0.6681
    X: D(   76) --> V(    8) amplitude =  0.0893
    X: D(   77) --> V(    2) amplitude = -0.4426
    X: D(   77) --> V(    8) amplitude =  0.1727
    X: D(   78) --> V(    1) amplitude = -0.1102
    X: D(   78) --> V(    2) amplitude =  0.1037
    X: D(   78) --> V(    8) amplitude = -0.1213
    X: D(   78) --> V(   10) amplitude =  0.1097
    X: D(   78) --> V(   11) amplitude = -0.1322

 Excited state   5: excitation energy (eV) =        3.3817
 Total energy for state   5:                 -1068.07524219 au
    Multiplicity: Singlet
    Trans. Mom.: -1.8913 X  -1.1754 Y   0.0830 Z
    Strength   :     0.4113777569
    X: D(   72) --> V(    1) amplitude = -0.0850
    X: D(   73) --> V(    1) amplitude =  0.0874
    X: D(   76) --> V(    1) amplitude = -0.1911
    X: D(   77) --> V(    1) amplitude =  0.9434
    X: D(   78) --> V(    1) amplitude = -0.1352
    X: D(   78) --> V(    2) amplitude =  0.1409

 Excited state   6: excitation energy (eV) =        3.4464
 Total energy for state   6:                 -1068.07286310 au
    Multiplicity: Triplet
    Trans. Mom.:  0.0000 X   0.0000 Y   0.0000 Z
    Strength   :     0.0000000000
    X: D(   72) --> V(    1) amplitude = -0.1605
    X: D(   74) --> V(    1) amplitude =  0.1407
    X: D(   74) --> V(    2) amplitude =  0.0826
    X: D(   76) --> V(    1) amplitude = -0.0781
    X: D(   76) --> V(    2) amplitude =  0.1739
    X: D(   76) --> V(    4) amplitude =  0.0784
    X: D(   77) --> V(    1) amplitude = -0.3612
    X: D(   77) --> V(    2) amplitude =  0.0843
    X: D(   77) --> V(    8) amplitude =  0.1852
    X: D(   78) --> V(    2) amplitude =  0.7230
    X: D(   78) --> V(    3) amplitude =  0.0926
    X: D(   78) --> V(    4) amplitude = -0.1208
    X: D(   78) --> V(    8) amplitude =  0.3626
    X: D(   78) --> V(   11) amplitude = -0.0743

 Excited state   7: excitation energy (eV) =        3.5249
 Total energy for state   7:                 -1068.06997782 au
    Multiplicity: Triplet
    Trans. Mom.:  0.0000 X   0.0000 Y   0.0000 Z
    Strength   :     0.0000000000
    X: D(   75) --> V(    1) amplitude =  0.9343
    X: D(   75) --> V(    2) amplitude =  0.1513
    X: D(   75) --> V(    8) amplitude = -0.2248
    X: D(   75) --> V(   11) amplitude =  0.1174
    X: D(   75) --> V(   28) amplitude =  0.0832

 Excited state   8: excitation energy (eV) =        3.6803
 Total energy for state   8:                 -1068.06426795 au
    Multiplicity: Triplet
    Trans. Mom.:  0.0000 X   0.0000 Y   0.0000 Z
    Strength   :     0.0000000000
    X: D(   67) --> V(    1) amplitude = -0.0721
    X: D(   72) --> V(    1) amplitude =  0.1024
    X: D(   74) --> V(    1) amplitude =  0.4295
    X: D(   74) --> V(    2) amplitude = -0.1730
    X: D(   74) --> V(    3) amplitude =  0.1099
    X: D(   74) --> V(    4) amplitude = -0.1586
    X: D(   74) --> V(    8) amplitude =  0.0989
    X: D(   74) --> V(   11) amplitude =  0.0712
    X: D(   76) --> V(    1) amplitude = -0.5142
    X: D(   76) --> V(    2) amplitude =  0.2611
    X: D(   76) --> V(    3) amplitude = -0.2079
    X: D(   76) --> V(    4) amplitude =  0.2997
    X: D(   77) --> V(    1) amplitude = -0.1400
    X: D(   77) --> V(    2) amplitude = -0.2425
    X: D(   77) --> V(    3) amplitude = -0.1122
    X: D(   77) --> V(    4) amplitude =  0.1547
    X: D(   78) --> V(    2) amplitude = -0.0956
    X: D(   78) --> V(    8) amplitude = -0.2770

 Excited state   9: excitation energy (eV) =        3.7251
 Total energy for state   9:                 -1068.06262319 au
    Multiplicity: Singlet
    Trans. Mom.: -0.0576 X  -0.0200 Y   0.0140 Z
    Strength   :     0.0003575369
    X: D(   75) --> V(    1) amplitude =  0.9521
    X: D(   75) --> V(    2) amplitude =  0.1545
    X: D(   75) --> V(    8) amplitude = -0.1908
    X: D(   75) --> V(   11) amplitude =  0.0856

 Excited state  10: excitation energy (eV) =        3.9668
 Total energy for state  10:                 -1068.05373980 au
    Multiplicity: Triplet
    Trans. Mom.:  0.0000 X   0.0000 Y   0.0000 Z
    Strength   :     0.0000000000
    X: D(   72) --> V(    1) amplitude = -0.3311
    X: D(   72) --> V(    2) amplitude = -0.1170
    X: D(   73) --> V(    1) amplitude = -0.4342
    X: D(   74) --> V(    1) amplitude =  0.2665
    X: D(   74) --> V(    2) amplitude = -0.2170
    X: D(   76) --> V(    1) amplitude = -0.1110
    X: D(   76) --> V(    2) amplitude = -0.1296
    X: D(   76) --> V(    8) amplitude = -0.1166
    X: D(   77) --> V(    1) amplitude =  0.1517
    X: D(   77) --> V(    2) amplitude =  0.2344
    X: D(   77) --> V(    4) amplitude = -0.0716
    X: D(   77) --> V(    8) amplitude =  0.2338
    X: D(   77) --> V(   11) amplitude = -0.0876
    X: D(   78) --> V(    2) amplitude = -0.3242
    X: D(   78) --> V(    8) amplitude =  0.2650
    X: D(   78) --> V(   10) amplitude =  0.1648
    X: D(   78) --> V(   11) amplitude = -0.2645
    X: D(   78) --> V(   13) amplitude = -0.1485
    X: D(   78) --> V(   28) amplitude = -0.1157

 Excited state  11: excitation energy (eV) =        4.1387
 Total energy for state  11:                 -1068.04742367 au
    Multiplicity: Singlet
    Trans. Mom.: -0.2380 X  -0.1026 Y   0.0624 Z
    Strength   :     0.0072081358
    X: D(   74) --> V(    2) amplitude =  0.0782
    X: D(   74) --> V(    8) amplitude = -0.0730
    X: D(   76) --> V(    1) amplitude =  0.8952
    X: D(   76) --> V(    2) amplitude = -0.1275
    X: D(   77) --> V(    1) amplitude =  0.1986
    X: D(   77) --> V(    2) amplitude = -0.1582
    X: D(   77) --> V(    3) amplitude =  0.0802
    X: D(   77) --> V(    4) amplitude = -0.1187
    X: D(   78) --> V(    2) amplitude = -0.1931
    X: D(   78) --> V(    3) amplitude = -0.0897
    X: D(   78) --> V(    4) amplitude =  0.1213

 Excited state  12: excitation energy (eV) =        4.4056
 Total energy for state  12:                 -1068.03761470 au
    Multiplicity: Singlet
    Trans. Mom.:  1.0061 X   0.3126 Y   0.1716 Z
    Strength   :     0.1229759684
    X: D(   74) --> V(    1) amplitude = -0.3922
    X: D(   74) --> V(    2) amplitude =  0.0970
    X: D(   76) --> V(    1) amplitude =  0.1873
    X: D(   77) --> V(    1) amplitude = -0.1182
    X: D(   77) --> V(    2) amplitude =  0.1658
    X: D(   77) --> V(   10) amplitude = -0.0749
    X: D(   77) --> V(   11) amplitude =  0.0969
    X: D(   78) --> V(    2) amplitude =  0.8055
    X: D(   78) --> V(    8) amplitude =  0.2188

 Excited state  13: excitation energy (eV) =        4.7459
 Total energy for state  13:                 -1068.02510969 au
    Multiplicity: Singlet
    Trans. Mom.:  0.4882 X  -0.8867 Y   0.6156 Z
    Strength   :     0.1631896929
    X: D(   73) --> V(    1) amplitude = -0.0867
    X: D(   74) --> V(    1) amplitude =  0.8169
    X: D(   76) --> V(    1) amplitude =  0.1926
    X: D(   76) --> V(    2) amplitude =  0.1299
    X: D(   76) --> V(    4) amplitude =  0.0842
    X: D(   77) --> V(    2) amplitude = -0.1347
    X: D(   77) --> V(    3) amplitude = -0.0973
    X: D(   77) --> V(    4) amplitude =  0.1259
    X: D(   78) --> V(    2) amplitude =  0.3827
    X: D(   78) --> V(    3) amplitude =  0.1049
    X: D(   78) --> V(    4) amplitude = -0.1301

 Excited state  14: excitation energy (eV) =        5.1407
 Total energy for state  14:                 -1068.01059768 au
    Multiplicity: Singlet
    Trans. Mom.: -0.0027 X   0.3361 Y  -0.1681 Z
    Strength   :     0.0177921038
    X: D(   74) --> V(    1) amplitude = -0.0854
    X: D(   76) --> V(    1) amplitude =  0.1006
    X: D(   77) --> V(    2) amplitude =  0.1382
    X: D(   77) --> V(    4) amplitude =  0.1655
    X: D(   77) --> V(    5) amplitude = -0.1095
    X: D(   77) --> V(    6) amplitude =  0.1205
    X: D(   77) --> V(    9) amplitude =  0.0769
    X: D(   78) --> V(    2) amplitude = -0.0841
    X: D(   78) --> V(    3) amplitude =  0.7716
    X: D(   78) --> V(    4) amplitude =  0.1205
    X: D(   78) --> V(    5) amplitude = -0.3609
    X: D(   78) --> V(    6) amplitude =  0.1038
    X: D(   78) --> V(    9) amplitude =  0.1453
    X: D(   78) --> V(   10) amplitude = -0.1784
    X: D(   78) --> V(   11) amplitude = -0.1348
    X: D(   78) --> V(   12) amplitude =  0.0809
    X: D(   78) --> V(   15) amplitude = -0.0958

 ---------------------------------------------------

                    Orbital Energies (a.u.)
 --------------------------------------------------------------

 Alpha MOs
 -- Occupied --
-19.2990 -19.2461 -19.2449 -19.2436 -19.2425 -19.1510 -10.3616 -10.3459
-10.3376 -10.3351 -10.3267 -10.3222 -10.3205 -10.2977 -10.2958 -10.2792
-10.2747 -10.2643 -10.2618 -10.2561 -10.2430 -10.2324  -1.2251  -1.1722
 -1.1615  -1.1564  -1.1437  -1.0765  -0.9663  -0.9478  -0.9229  -0.8827
 -0.8504  -0.8354  -0.8196  -0.7910  -0.7628  -0.7601  -0.7057  -0.6983
 -0.6839  -0.6706  -0.6421  -0.6333  -0.6193  -0.6089  -0.5869  -0.5775
 -0.5695  -0.5636  -0.5522  -0.5485  -0.5310  -0.5211  -0.5105  -0.5040
 -0.5014  -0.4974  -0.4957  -0.4892  -0.4868  -0.4797  -0.4678  -0.4577
 -0.4526  -0.4463  -0.4348  -0.4298  -0.4190  -0.4161  -0.4101  -0.3817
 -0.3642  -0.3238  -0.3148  -0.3051  -0.2779  -0.2482

                    Cartesian Multipole Moments
                  LMN = < X^L Y^M Z^N >

 Total job time:  4509.03s(wall), 62555.75s(cpu)
        *  Thank you very much for using Q-Chem.  Have a nice day.  *
