 Q-Chem 6.2, Q-Chem, Inc., Pleasanton, CA (2024)
 Q-Chem 6.2.0 for Intel X86 EM64T Linux

User input:
--------------------------------------------------------------
$comment
TDDFT calculation of peonidin H structure
nprocs=16
mem=64gb
$end

$molecule
1 1
C   -4.9020569    1.1635715   -0.2109540
C   -4.8564493   -0.0706302    0.4641877
C   -3.6767895   -0.5113771    1.0141670
C   -2.4979383    0.2806875    0.9054871
C   -2.6065333    1.5085412    0.2216771
C   -3.7797718    1.9708088   -0.3405821
C   -1.2509756   -0.0687011    1.4258440
C   -0.1512201    0.7557508    1.2770196
C   -0.2905706    1.9778733    0.5918278
O   -1.5019970    2.2811514    0.1014026
C    0.6976517    3.0030362    0.3516834
C    0.2646269    4.2721536   -0.1021127
C    1.1740643    5.2767488   -0.3438264
C    2.5526306    5.0366952   -0.1530518
C    2.9850339    3.7928273    0.2817359
C    2.0735724    2.7847917    0.5403894
O   -6.0542199    1.6117362   -0.7626213
H   -5.7542946   -0.6718237    0.5453528
O   -3.5593032   -1.6876349    1.6725757
H   -3.8207927    2.9169492   -0.8598341
H   -1.1322655   -0.9985949    1.9684334
O    1.0590617    0.4309077    1.7980987
H   -0.7872141    4.4589949   -0.2456552
O    0.8745094    6.5375866   -0.7598447
O    3.4583341    6.0142331   -0.3901728
H    2.4365871    1.8271911    0.8696641
H   -6.7716685    0.9760272   -0.6220903
H   -4.4094110   -2.1523620    1.6866596
H    1.0055650   -0.4229834    2.2525649
H    2.9962973    6.8126938   -0.6935822
C   -0.5002626    6.8774417   -0.9770510
H   -0.5005862    7.9170261   -1.2933836
H   -1.0742694    6.7724088   -0.0546306
H   -0.9331166    6.2527589   -1.7602456
H    4.0453321    3.6249150    0.4167175
$end

$rem
BASIS  =  def2-ma-TZVP
MEM_STATIC  =  2000
MEM_TOTAL  =  64000
METHOD  =  CAM-B3LYP
SOLVENT_METHOD = pcm
SYMMETRY_IGNORE  =  1
CIS_N_ROOTS = 7
CIS_SINGLETS = true
CIS_TRIPLETS = true
CISTR_PRINT = true
RPA = true
PRINT_ORBITALS = true
SCF_PRINT = 1
SCF_FINAL_PRINT = 2
PRINT_GENERAL_BASIS = true
CISTR_PRINT = true
PRINT_RADII_GYRE = true
MULTIPOLE_ORDER = 5
CIS_AMPL_PRINT = 5
CIS_AMPL_ANAL = true
STATE_ANALYSIS = true
$end

$pcm
Theory   CPCM
Method   SWIG
Solver   Inversion
Radii    Bondi
$end

$solvent
Dielectric         78.39
OpticalDielectric  1.777849
$end

--------------------------------------------------------------

             Standard Nuclear Orientation (Angstroms)
    I     Atom           X                Y                Z
 ----------------------------------------------------------------
    1      C      -4.9020569000     1.1635715000    -0.2109540000
    2      C      -4.8564493000    -0.0706302000     0.4641877000
    3      C      -3.6767895000    -0.5113771000     1.0141670000
    4      C      -2.4979383000     0.2806875000     0.9054871000
    5      C      -2.6065333000     1.5085412000     0.2216771000
    6      C      -3.7797718000     1.9708088000    -0.3405821000
    7      C      -1.2509756000    -0.0687011000     1.4258440000
    8      C      -0.1512201000     0.7557508000     1.2770196000
    9      C      -0.2905706000     1.9778733000     0.5918278000
   10      O      -1.5019970000     2.2811514000     0.1014026000
   11      C       0.6976517000     3.0030362000     0.3516834000
   12      C       0.2646269000     4.2721536000    -0.1021127000
   13      C       1.1740643000     5.2767488000    -0.3438264000
   14      C       2.5526306000     5.0366952000    -0.1530518000
   15      C       2.9850339000     3.7928273000     0.2817359000
   16      C       2.0735724000     2.7847917000     0.5403894000
   17      O      -6.0542199000     1.6117362000    -0.7626213000
   18      H      -5.7542946000    -0.6718237000     0.5453528000
   19      O      -3.5593032000    -1.6876349000     1.6725757000
   20      H      -3.8207927000     2.9169492000    -0.8598341000
   21      H      -1.1322655000    -0.9985949000     1.9684334000
   22      O       1.0590617000     0.4309077000     1.7980987000
   23      H      -0.7872141000     4.4589949000    -0.2456552000
   24      O       0.8745094000     6.5375866000    -0.7598447000
   25      O       3.4583341000     6.0142331000    -0.3901728000
   26      H       2.4365871000     1.8271911000     0.8696641000
   27      H      -6.7716685000     0.9760272000    -0.6220903000
   28      H      -4.4094110000    -2.1523620000     1.6866596000
   29      H       1.0055650000    -0.4229834000     2.2525649000
   30      H       2.9962973000     6.8126938000    -0.6935822000
   31      C      -0.5002626000     6.8774417000    -0.9770510000
   32      H      -0.5005862000     7.9170261000    -1.2933836000
   33      H      -1.0742694000     6.7724088000    -0.0546306000
   34      H      -0.9331166000     6.2527589000    -1.7602456000
   35      H       4.0453321000     3.6249150000     0.4167175000
 ----------------------------------------------------------------

   15   -1068.6536074956      7.26e-09  Convergence criterion met
 Total energy = -1068.65360750

             TDDFT Excitation Energies
 ---------------------------------------------------

 Excited state   1: excitation energy (eV) =        1.5916
 Total energy for state   1:                 -1068.59511801 au
    Multiplicity: Triplet
    Trans. Mom.:  0.0000 X   0.0000 Y   0.0000 Z
    Strength   :     0.0000000000
    X: D(   74) --> V(    1) amplitude =  0.1795
    X: D(   74) --> V(    9) amplitude = -0.0753
    X: D(   75) --> V(    1) amplitude = -0.0803
    X: D(   75) --> V(    2) amplitude =  0.0783
    X: D(   77) --> V(    1) amplitude = -0.2225
    X: D(   77) --> V(    2) amplitude =  0.0856
    X: D(   78) --> V(    1) amplitude =  0.9524
    Y: D(   78) --> V(    1) amplitude =  0.1938

 Excited state   2: excitation energy (eV) =        2.5569
 Total energy for state   2:                 -1068.55964386 au
    Multiplicity: Triplet
    Trans. Mom.:  0.0000 X   0.0000 Y   0.0000 Z
    Strength   :     0.0000000000
    X: D(   73) --> V(    1) amplitude = -0.1193
    X: D(   75) --> V(    3) amplitude = -0.1195
    X: D(   76) --> V(    1) amplitude = -0.1947
    X: D(   76) --> V(    5) amplitude =  0.0907
    X: D(   77) --> V(    1) amplitude =  0.8430
    Y: D(   77) --> V(    1) amplitude =  0.0854
    X: D(   77) --> V(    9) amplitude =  0.0934
    X: D(   78) --> V(    1) amplitude =  0.1856
    X: D(   78) --> V(    2) amplitude =  0.3454
    Y: D(   78) --> V(    2) amplitude =  0.0736
    X: D(   78) --> V(    3) amplitude = -0.1275
    X: D(   78) --> V(    5) amplitude =  0.0756
    X: D(   78) --> V(    9) amplitude =  0.0884

 Excited state   3: excitation energy (eV) =        2.7384
 Total energy for state   3:                 -1068.55297278 au
    Multiplicity: Singlet
    Trans. Mom.: -2.7150 X  -2.0114 Y   0.2903 Z
    Strength   :     0.7716424730
    X: D(   77) --> V(    1) amplitude = -0.2371
    X: D(   78) --> V(    1) amplitude =  0.9611

 Excited state   4: excitation energy (eV) =        3.1137
 Total energy for state   4:                 -1068.53917950 au
    Multiplicity: Triplet
    Trans. Mom.:  0.0000 X   0.0000 Y   0.0000 Z
    Strength   :     0.0000000000
    X: D(   71) --> V(    1) amplitude =  0.1126
    X: D(   75) --> V(    1) amplitude =  0.1902
    X: D(   75) --> V(    3) amplitude =  0.1000
    X: D(   76) --> V(    1) amplitude =  0.8536
    X: D(   76) --> V(    2) amplitude =  0.1117
    X: D(   76) --> V(    5) amplitude = -0.0765
    X: D(   76) --> V(    9) amplitude =  0.0775
    X: D(   77) --> V(    1) amplitude =  0.1956
    X: D(   77) --> V(    2) amplitude =  0.2181
    X: D(   77) --> V(    3) amplitude = -0.1930
    X: D(   78) --> V(    1) amplitude =  0.1123
    X: D(   78) --> V(    9) amplitude =  0.0788

 Excited state   5: excitation energy (eV) =        3.4526
 Total energy for state   5:                 -1068.52672721 au
    Multiplicity: Singlet
    Trans. Mom.: -0.9838 X  -0.5982 Y   0.0435 Z
    Strength   :     0.1123017640
    X: D(   75) --> V(    1) amplitude = -0.1420
    X: D(   76) --> V(    1) amplitude = -0.2330
    X: D(   77) --> V(    1) amplitude =  0.9153
    X: D(   78) --> V(    1) amplitude =  0.2234
    X: D(   78) --> V(    2) amplitude =  0.1142

 Excited state   6: excitation energy (eV) =        3.4735
 Total energy for state   6:                 -1068.52595889 au
    Multiplicity: Triplet
    Trans. Mom.:  0.0000 X   0.0000 Y   0.0000 Z
    Strength   :     0.0000000000
    X: D(   69) --> V(    1) amplitude =  0.1032
    X: D(   74) --> V(    1) amplitude = -0.1065
    X: D(   75) --> V(    1) amplitude =  0.7641
    X: D(   75) --> V(    9) amplitude =  0.0956
    X: D(   76) --> V(    1) amplitude = -0.0833
    X: D(   76) --> V(    2) amplitude = -0.2130
    X: D(   76) --> V(    3) amplitude =  0.2800
    X: D(   77) --> V(    1) amplitude = -0.2326
    X: D(   77) --> V(    5) amplitude =  0.1828
    X: D(   78) --> V(    2) amplitude =  0.3025
    X: D(   78) --> V(    9) amplitude =  0.1496

 Excited state   7: excitation energy (eV) =        3.7032
 Total energy for state   7:                 -1068.51751561 au
    Multiplicity: Triplet
    Trans. Mom.:  0.0000 X   0.0000 Y   0.0000 Z
    Strength   :     0.0000000000
    X: D(   74) --> V(    2) amplitude =  0.1119
    X: D(   74) --> V(    9) amplitude =  0.0716
    X: D(   74) --> V(   26) amplitude = -0.1021
    X: D(   75) --> V(    1) amplitude = -0.2797
    X: D(   75) --> V(    2) amplitude = -0.2402
    X: D(   76) --> V(    1) amplitude =  0.2895
    X: D(   76) --> V(    5) amplitude =  0.0962
    X: D(   77) --> V(    1) amplitude = -0.2280
    X: D(   77) --> V(    2) amplitude = -0.2465
    X: D(   77) --> V(    9) amplitude =  0.1354
    X: D(   78) --> V(    2) amplitude =  0.7353
    Y: D(   78) --> V(    2) amplitude =  0.0770

 Excited state   8: excitation energy (eV) =        3.7861
 Total energy for state   8:                 -1068.51447228 au
    Multiplicity: Singlet
    Trans. Mom.:  0.3363 X   0.3837 Y  -0.0249 Z
    Strength   :     0.0242031020
    X: D(   75) --> V(    2) amplitude = -0.0713
    X: D(   76) --> V(    1) amplitude =  0.9396
    X: D(   77) --> V(    1) amplitude =  0.2321
    X: D(   77) --> V(    2) amplitude =  0.1275
    X: D(   78) --> V(    3) amplitude = -0.1041

 Excited state   9: excitation energy (eV) =        3.9326
 Total energy for state   9:                 -1068.50908793 au
    Multiplicity: Triplet
    Trans. Mom.:  0.0000 X   0.0000 Y   0.0000 Z
    Strength   :     0.0000000000
    X: D(   60) --> V(    1) amplitude =  0.0764
    X: D(   61) --> V(    1) amplitude =  0.0776
    X: D(   71) --> V(    1) amplitude =  0.1572
    X: D(   73) --> V(    1) amplitude =  0.2598
    X: D(   74) --> V(    1) amplitude =  0.7297
    X: D(   74) --> V(    2) amplitude = -0.1491
    X: D(   75) --> V(    1) amplitude =  0.2490
    X: D(   75) --> V(    2) amplitude = -0.1647
    X: D(   76) --> V(    3) amplitude = -0.1458
    X: D(   77) --> V(    3) amplitude =  0.1468
    X: D(   77) --> V(    5) amplitude = -0.2079
    X: D(   77) --> V(    9) amplitude =  0.0856
    X: D(   78) --> V(    3) amplitude = -0.1245
    X: D(   78) --> V(    9) amplitude = -0.2383
    X: D(   78) --> V(   10) amplitude = -0.0996

 Excited state  10: excitation energy (eV) =        4.0948
 Total energy for state  10:                 -1068.50312543 au
    Multiplicity: Triplet
    Trans. Mom.:  0.0000 X   0.0000 Y   0.0000 Z
    Strength   :     0.0000000000
    X: D(   71) --> V(    1) amplitude =  0.0830
    X: D(   74) --> V(    1) amplitude = -0.0788
    X: D(   74) --> V(    3) amplitude =  0.0802
    X: D(   75) --> V(    1) amplitude = -0.1488
    X: D(   75) --> V(    3) amplitude = -0.1902
    X: D(   76) --> V(    1) amplitude =  0.1076
    X: D(   76) --> V(    2) amplitude = -0.2053
    X: D(   76) --> V(    5) amplitude =  0.4126
    X: D(   77) --> V(    1) amplitude = -0.0767
    X: D(   77) --> V(    2) amplitude =  0.4704
    X: D(   77) --> V(    3) amplitude =  0.4746
    X: D(   77) --> V(    9) amplitude =  0.0846
    X: D(   78) --> V(    2) amplitude = -0.1043
    X: D(   78) --> V(    3) amplitude = -0.0773
    X: D(   78) --> V(    5) amplitude =  0.3435
    X: D(   78) --> V(    9) amplitude =  0.1199

 Excited state  11: excitation energy (eV) =        4.4952
 Total energy for state  11:                 -1068.48841344 au
    Multiplicity: Singlet
    Trans. Mom.: -0.1633 X  -0.7050 Y   0.2748 Z
    Strength   :     0.0659862525
    X: D(   69) --> V(    1) amplitude =  0.0755
    X: D(   75) --> V(    1) amplitude =  0.8634
    X: D(   76) --> V(    2) amplitude = -0.1934
    X: D(   77) --> V(    1) amplitude =  0.1641
    X: D(   77) --> V(    2) amplitude =  0.2711
    X: D(   77) --> V(    3) amplitude =  0.0896
    X: D(   78) --> V(    2) amplitude = -0.2161
    X: D(   78) --> V(    5) amplitude =  0.1340

 Excited state  12: excitation energy (eV) =        4.9371
 Total energy for state  12:                 -1068.47217139 au
    Multiplicity: Singlet
    Trans. Mom.:  0.7567 X  -0.6714 Y   0.5882 Z
    Strength   :     0.1656292007
    X: D(   74) --> V(    1) amplitude = -0.2870
    X: D(   75) --> V(    1) amplitude =  0.2799
    X: D(   75) --> V(    3) amplitude = -0.0944
    X: D(   76) --> V(    1) amplitude =  0.0875
    X: D(   76) --> V(    5) amplitude =  0.0788
    X: D(   77) --> V(    2) amplitude = -0.1862
    X: D(   77) --> V(    5) amplitude =  0.0921
    X: D(   77) --> V(    9) amplitude =  0.1076
    X: D(   78) --> V(    2) amplitude =  0.8359
    X: D(   78) --> V(    3) amplitude =  0.1737

 Excited state  13: excitation energy (eV) =        5.2519
 Total energy for state  13:                 -1068.46060523 au
    Multiplicity: Singlet
    Trans. Mom.: -0.1261 X  -0.6820 Y   0.2868 Z
    Strength   :     0.0724676449
    X: D(   74) --> V(    1) amplitude =  0.4634
    X: D(   75) --> V(    2) amplitude = -0.1220
    X: D(   75) --> V(    5) amplitude = -0.1171
    X: D(   76) --> V(    1) amplitude = -0.0858
    X: D(   76) --> V(    5) amplitude =  0.0838
    X: D(   76) --> V(    9) amplitude =  0.1340
    X: D(   77) --> V(    1) amplitude = -0.0846
    X: D(   77) --> V(    2) amplitude =  0.4209
    X: D(   77) --> V(    5) amplitude = -0.1664
    X: D(   78) --> V(    2) amplitude =  0.3969
    X: D(   78) --> V(    3) amplitude = -0.5493

 Excited state  14: excitation energy (eV) =        5.3434
 Total energy for state  14:                 -1068.45723994 au
    Multiplicity: Singlet
    Trans. Mom.:  0.9284 X  -0.0354 Y   0.3666 Z
    Strength   :     0.1306005476
    X: D(   73) --> V(    1) amplitude =  0.1799
    X: D(   74) --> V(    1) amplitude =  0.7774
    X: D(   75) --> V(    1) amplitude =  0.1516
    X: D(   75) --> V(    5) amplitude =  0.0889
    X: D(   76) --> V(    1) amplitude =  0.1463
    X: D(   76) --> V(    9) amplitude = -0.1033
    X: D(   77) --> V(    2) amplitude = -0.2775
    X: D(   77) --> V(    3) amplitude =  0.1033
    X: D(   77) --> V(    5) amplitude =  0.0800
    X: D(   78) --> V(    2) amplitude =  0.0714
    X: D(   78) --> V(    3) amplitude =  0.3559
    X: D(   78) --> V(    5) amplitude =  0.2114

 ---------------------------------------------------

                    Orbital Energies (a.u.)
 --------------------------------------------------------------

 Alpha MOs
 -- Occupied --
-19.3228 -19.2580 -19.2572 -19.2564 -19.2509 -19.2494 -10.3886 -10.3653
-10.3569 -10.3561 -10.3548 -10.3384 -10.3291 -10.3147 -10.2998 -10.2983
-10.2888 -10.2730 -10.2725 -10.2719 -10.2664 -10.2624  -1.2508  -1.1800
 -1.1758  -1.1752  -1.1714  -1.1512  -0.9888  -0.9688  -0.9401  -0.9045
 -0.8625  -0.8558  -0.8474  -0.8013  -0.7870  -0.7766  -0.7335  -0.7204
 -0.7083  -0.6937  -0.6612  -0.6514  -0.6433  -0.6309  -0.6178  -0.6015
 -0.5950  -0.5828  -0.5775  -0.5645  -0.5568  -0.5462  -0.5330  -0.5278
 -0.5244  -0.5125  -0.5073  -0.5064  -0.5044  -0.4993  -0.4934  -0.4889
 -0.4765  -0.4670  -0.4500  -0.4475  -0.4460  -0.4273  -0.4231  -0.4220
 -0.4089  -0.3771  -0.3400  -0.3182  -0.3034  -0.2747

                    Cartesian Multipole Moments
                  LMN = < X^L Y^M Z^N >

 Total job time:  4371.52s(wall), 59680.38s(cpu)
        *  Thank you very much for using Q-Chem.  Have a nice day.  *
