 Q-Chem 6.2, Q-Chem, Inc., Pleasanton, CA (2024)
 Q-Chem 6.2.0 for Intel X86 EM64T Linux

User input:
--------------------------------------------------------------
$comment
TDDFT calculation of petunidin Q3 structure
nprocs=16
mem=64gb
$end

$molecule
0 1
C   -0.2703699   -1.6574489   -4.1410216
C   -0.0646301   -0.5123882   -4.8977692
C    0.1315015    0.7503401   -4.2941967
C    0.1034772    0.7639952   -2.8233826
C   -0.1163221   -0.4493393   -2.1172113
C   -0.3034047   -1.6585103   -2.7359209
C    0.2901186    1.9097919   -2.0841245
C    0.2597936    1.9014744   -0.6862871
C    0.0294438    0.7070799   -0.0191160
O   -0.1496173   -0.4105182   -0.7588337
C   -0.0329802    0.4551119    1.4125362
C    0.0974479   -0.8700670    1.8737480
C    0.0254513   -1.1403271    3.2276759
C   -0.1844085   -0.1014205    4.1466355
C   -0.3196722    1.2055039    3.6883497
C   -0.2400528    1.4895576    2.3347895
O   -0.4560951   -2.8705827   -4.7332824
H   -0.0520993   -0.5822847   -5.9791184
O    0.3238150    1.8219079   -4.9489530
H   -0.4707715   -2.5676694   -2.1777732
H    0.4754196    2.8478318   -2.5952853
O    0.4768274    3.0439736    0.0288851
H    0.2637221   -1.6709252    1.1726243
O    0.1461246   -2.3728158    3.7982105
O   -0.2626329   -0.3286322    5.4877909
O   -0.5354009    2.2375414    4.5680213
H   -0.3633037    2.5114245    2.0170146
H   -0.4134362   -2.7805089   -5.6966663
C    0.3542043   -3.5022720    2.9423092
H   -0.5797487    1.8906327    5.4711376
H    0.4178596   -4.3638740    3.6016598
H    1.2850982   -3.3976932    2.3823239
H   -0.4838859   -3.6263315    2.2544388
H   -0.1545650   -1.2774284    5.6589351
H    0.6622921    3.7748110   -0.5785034
$end

$rem
BASIS  =  def2-ma-TZVP
MEM_STATIC  =  2000
MEM_TOTAL  =  64000
METHOD  =  CAM-B3LYP
SOLVENT_METHOD = pcm
SYMMETRY_IGNORE  =  1
CIS_N_ROOTS = 7
CIS_SINGLETS = true
CIS_TRIPLETS = true
CISTR_PRINT = true
RPA = true
PRINT_ORBITALS = true
SCF_PRINT = 1
SCF_FINAL_PRINT = 2
PRINT_GENERAL_BASIS = true
CISTR_PRINT = true
PRINT_RADII_GYRE = true
MULTIPOLE_ORDER = 5
CIS_AMPL_PRINT = 5
CIS_AMPL_ANAL = true
STATE_ANALYSIS = true
$end

$pcm
Theory   CPCM
Method   SWIG
Solver   Inversion
Radii    Bondi
$end

$solvent
Dielectric         78.39
OpticalDielectric  1.777849
$end

--------------------------------------------------------------

             Standard Nuclear Orientation (Angstroms)
    I     Atom           X                Y                Z
 ----------------------------------------------------------------
    1      C      -0.2703699000    -1.6574489000    -4.1410216000
    2      C      -0.0646301000    -0.5123882000    -4.8977692000
    3      C       0.1315015000     0.7503401000    -4.2941967000
    4      C       0.1034772000     0.7639952000    -2.8233826000
    5      C      -0.1163221000    -0.4493393000    -2.1172113000
    6      C      -0.3034047000    -1.6585103000    -2.7359209000
    7      C       0.2901186000     1.9097919000    -2.0841245000
    8      C       0.2597936000     1.9014744000    -0.6862871000
    9      C       0.0294438000     0.7070799000    -0.0191160000
   10      O      -0.1496173000    -0.4105182000    -0.7588337000
   11      C      -0.0329802000     0.4551119000     1.4125362000
   12      C       0.0974479000    -0.8700670000     1.8737480000
   13      C       0.0254513000    -1.1403271000     3.2276759000
   14      C      -0.1844085000    -0.1014205000     4.1466355000
   15      C      -0.3196722000     1.2055039000     3.6883497000
   16      C      -0.2400528000     1.4895576000     2.3347895000
   17      O      -0.4560951000    -2.8705827000    -4.7332824000
   18      H      -0.0520993000    -0.5822847000    -5.9791184000
   19      O       0.3238150000     1.8219079000    -4.9489530000
   20      H      -0.4707715000    -2.5676694000    -2.1777732000
   21      H       0.4754196000     2.8478318000    -2.5952853000
   22      O       0.4768274000     3.0439736000     0.0288851000
   23      H       0.2637221000    -1.6709252000     1.1726243000
   24      O       0.1461246000    -2.3728158000     3.7982105000
   25      O      -0.2626329000    -0.3286322000     5.4877909000
   26      O      -0.5354009000     2.2375414000     4.5680213000
   27      H      -0.3633037000     2.5114245000     2.0170146000
   28      H      -0.4134362000    -2.7805089000    -5.6966663000
   29      C       0.3542043000    -3.5022720000     2.9423092000
   30      H      -0.5797487000     1.8906327000     5.4711376000
   31      H       0.4178596000    -4.3638740000     3.6016598000
   32      H       1.2850982000    -3.3976932000     2.3823239000
   33      H      -0.4838859000    -3.6263315000     2.2544388000
   34      H      -0.1545650000    -1.2774284000     5.6589351000
   35      H       0.6622921000     3.7748110000    -0.5785034000
 ----------------------------------------------------------------

   16   -1143.4390293882      5.18e-09  Convergence criterion met
 Total energy = -1143.43902939

             TDDFT Excitation Energies
 ---------------------------------------------------

 Excited state   1: excitation energy (eV) =        1.3548
 Total energy for state   1:                 -1143.38924088 au
    Multiplicity: Triplet
    Trans. Mom.:  0.0000 X   0.0000 Y   0.0000 Z
    Strength   :     0.0000000000
    X: D(   77) --> V(    1) amplitude =  0.0740
    X: D(   79) --> V(    1) amplitude =  0.2041
    Y: D(   79) --> V(    1) amplitude =  0.0734
    X: D(   81) --> V(    2) amplitude = -0.1057
    X: D(   82) --> V(    1) amplitude =  0.9778
    Y: D(   82) --> V(    1) amplitude =  0.2125

 Excited state   2: excitation energy (eV) =        2.3911
 Total energy for state   2:                 -1143.35115966 au
    Multiplicity: Singlet
    Trans. Mom.: -0.0636 X  -0.1174 Y   2.4709 Z
    Strength   :     0.3586819376
    X: D(   81) --> V(    1) amplitude =  0.1450
    X: D(   82) --> V(    1) amplitude =  0.9794
    X: D(   82) --> V(    2) amplitude = -0.0858

 Excited state   3: excitation energy (eV) =        2.4564
 Total energy for state   3:                 -1143.34875723 au
    Multiplicity: Triplet
    Trans. Mom.:  0.0000 X   0.0000 Y   0.0000 Z
    Strength   :     0.0000000000
    X: D(   76) --> V(    1) amplitude = -0.0789
    X: D(   77) --> V(    1) amplitude = -0.1341
    X: D(   79) --> V(    1) amplitude = -0.1251
    X: D(   79) --> V(    2) amplitude =  0.0972
    X: D(   79) --> V(    8) amplitude =  0.0960
    X: D(   80) --> V(    6) amplitude =  0.1090
    X: D(   81) --> V(    1) amplitude =  0.8452
    Y: D(   81) --> V(    1) amplitude =  0.0878
    X: D(   81) --> V(    8) amplitude =  0.0954
    X: D(   81) --> V(   11) amplitude =  0.0760
    X: D(   82) --> V(    1) amplitude =  0.1075
    X: D(   82) --> V(    2) amplitude = -0.4019
    Y: D(   82) --> V(    2) amplitude = -0.0735

 Excited state   4: excitation energy (eV) =        3.2315
 Total energy for state   4:                 -1143.32027268 au
    Multiplicity: Triplet
    Trans. Mom.:  0.0000 X   0.0000 Y   0.0000 Z
    Strength   :     0.0000000000
    X: D(   75) --> V(    1) amplitude =  0.1360
    X: D(   79) --> V(    1) amplitude =  0.7332
    X: D(   79) --> V(    8) amplitude =  0.0780
    X: D(   79) --> V(   11) amplitude =  0.0723
    X: D(   80) --> V(    1) amplitude =  0.1390
    X: D(   80) --> V(    5) amplitude =  0.1196
    X: D(   80) --> V(    6) amplitude =  0.1859
    X: D(   81) --> V(    2) amplitude =  0.4453
    X: D(   81) --> V(    8) amplitude =  0.1768
    X: D(   82) --> V(    1) amplitude = -0.0978
    X: D(   82) --> V(    2) amplitude = -0.1010
    X: D(   82) --> V(    8) amplitude = -0.1165
    X: D(   82) --> V(   11) amplitude = -0.1290
    X: D(   82) --> V(   12) amplitude =  0.1188

 Excited state   5: excitation energy (eV) =        3.3119
 Total energy for state   5:                 -1143.31731884 au
    Multiplicity: Triplet
    Trans. Mom.:  0.0000 X   0.0000 Y   0.0000 Z
    Strength   :     0.0000000000
    X: D(   79) --> V(    1) amplitude = -0.1174
    X: D(   80) --> V(    1) amplitude =  0.8871
    X: D(   80) --> V(    2) amplitude =  0.3487
    X: D(   80) --> V(    8) amplitude =  0.1891

 Excited state   6: excitation energy (eV) =        3.3805
 Total energy for state   6:                 -1143.31479775 au
    Multiplicity: Singlet
    Trans. Mom.: -0.0018 X  -0.1790 Y  -2.1863 Z
    Strength   :     0.3985308170
    X: D(   76) --> V(    1) amplitude = -0.0741
    X: D(   77) --> V(    1) amplitude = -0.1050
    X: D(   79) --> V(    1) amplitude = -0.1985
    X: D(   81) --> V(    1) amplitude =  0.9414
    X: D(   82) --> V(    1) amplitude = -0.1420
    X: D(   82) --> V(    2) amplitude = -0.1404

 Excited state   7: excitation energy (eV) =        3.4596
 Total energy for state   7:                 -1143.31188978 au
    Multiplicity: Triplet
    Trans. Mom.:  0.0000 X   0.0000 Y   0.0000 Z
    Strength   :     0.0000000000
    X: D(   75) --> V(    1) amplitude =  0.0808
    X: D(   76) --> V(    1) amplitude =  0.1683
    X: D(   78) --> V(    1) amplitude =  0.0760
    X: D(   79) --> V(    2) amplitude =  0.1708
    X: D(   81) --> V(    1) amplitude =  0.3268
    X: D(   81) --> V(    2) amplitude =  0.1425
    X: D(   81) --> V(    8) amplitude = -0.1683
    X: D(   82) --> V(    2) amplitude =  0.7324
    X: D(   82) --> V(    8) amplitude = -0.3996
    X: D(   82) --> V(    9) amplitude =  0.1584

 Excited state   8: excitation energy (eV) =        3.5050
 Total energy for state   8:                 -1143.31022142 au
    Multiplicity: Triplet
    Trans. Mom.:  0.0000 X   0.0000 Y   0.0000 Z
    Strength   :     0.0000000000
    X: D(   78) --> V(    1) amplitude =  0.9304
    X: D(   78) --> V(    2) amplitude = -0.1436
    X: D(   78) --> V(    8) amplitude = -0.2206
    X: D(   78) --> V(    9) amplitude =  0.0931
    X: D(   78) --> V(   11) amplitude =  0.0730
    X: D(   78) --> V(   12) amplitude = -0.0870
    X: D(   79) --> V(    1) amplitude =  0.0737

 Excited state   9: excitation energy (eV) =        3.7066
 Total energy for state   9:                 -1143.30281424 au
    Multiplicity: Singlet
    Trans. Mom.: -0.0169 X   0.0283 Y   0.0782 Z
    Strength   :     0.0006541361
    X: D(   78) --> V(    1) amplitude =  0.9475
    X: D(   78) --> V(    2) amplitude = -0.1484
    X: D(   78) --> V(    8) amplitude = -0.1882
    X: D(   78) --> V(    9) amplitude =  0.0786
    X: D(   79) --> V(    1) amplitude =  0.0978

 Excited state  10: excitation energy (eV) =        3.8995
 Total energy for state  10:                 -1143.29572562 au
    Multiplicity: Singlet
    Trans. Mom.: -0.0607 X   0.4224 Y   0.1935 Z
    Strength   :     0.0209722390
    X: D(   80) --> V(    1) amplitude =  0.9568
    X: D(   80) --> V(    2) amplitude =  0.1913
    X: D(   80) --> V(    8) amplitude =  0.0899
    X: D(   81) --> V(    6) amplitude = -0.1067
    X: D(   82) --> V(    6) amplitude =  0.0842

 Excited state  11: excitation energy (eV) =        3.9299
 Total energy for state  11:                 -1143.29460810 au
    Multiplicity: Triplet
    Trans. Mom.:  0.0000 X   0.0000 Y   0.0000 Z
    Strength   :     0.0000000000
    X: D(   76) --> V(    1) amplitude = -0.3608
    X: D(   76) --> V(    2) amplitude =  0.0979
    X: D(   77) --> V(    1) amplitude =  0.3106
    X: D(   77) --> V(    2) amplitude =  0.0817
    X: D(   79) --> V(    1) amplitude =  0.1940
    X: D(   79) --> V(    2) amplitude =  0.2657
    X: D(   79) --> V(    8) amplitude = -0.0978
    X: D(   80) --> V(    5) amplitude = -0.0935
    X: D(   80) --> V(    6) amplitude = -0.1470
    X: D(   81) --> V(    1) amplitude =  0.2423
    X: D(   81) --> V(    2) amplitude = -0.3048
    X: D(   81) --> V(    8) amplitude =  0.2268
    X: D(   81) --> V(    9) amplitude = -0.0944
    X: D(   81) --> V(   12) amplitude =  0.0734
    X: D(   82) --> V(    2) amplitude =  0.2995
    X: D(   82) --> V(    8) amplitude =  0.3238
    X: D(   82) --> V(    9) amplitude = -0.1417
    X: D(   82) --> V(   11) amplitude = -0.1640
    X: D(   82) --> V(   12) amplitude =  0.1884
    X: D(   82) --> V(   13) amplitude =  0.1450
    X: D(   82) --> V(   14) amplitude = -0.0712
    X: D(   82) --> V(   28) amplitude = -0.0807
    X: D(   82) --> V(   29) amplitude =  0.0709

 Excited state  12: excitation energy (eV) =        4.3175
 Total energy for state  12:                 -1143.28036284 au
    Multiplicity: Singlet
    Trans. Mom.: -0.0150 X  -0.0524 Y  -0.8892 Z
    Strength   :     0.0839503546
    X: D(   79) --> V(    1) amplitude =  0.5975
    X: D(   81) --> V(    1) amplitude =  0.2287
    X: D(   81) --> V(    2) amplitude =  0.2437
    X: D(   82) --> V(    2) amplitude =  0.6687
    X: D(   82) --> V(    8) amplitude = -0.1817

 Excited state  13: excitation energy (eV) =        4.6003
 Total energy for state  13:                 -1143.26997227 au
    Multiplicity: Singlet
    Trans. Mom.:  0.2119 X   1.2118 Y   0.3086 Z
    Strength   :     0.1813069526
    X: D(   77) --> V(    1) amplitude =  0.1042
    X: D(   79) --> V(    1) amplitude =  0.7154
    X: D(   80) --> V(    6) amplitude =  0.0834
    X: D(   82) --> V(    1) amplitude = -0.0856
    X: D(   82) --> V(    2) amplitude = -0.6265
    X: D(   82) --> V(    8) amplitude =  0.0964

 Excited state  14: excitation energy (eV) =        5.1815
 Total energy for state  14:                 -1143.24861367 au
    Multiplicity: Singlet
    Trans. Mom.:  0.0312 X   0.0653 Y   0.0491 Z
    Strength   :     0.0009704258
    X: D(   81) --> V(    4) amplitude = -0.1537
    X: D(   81) --> V(    6) amplitude =  0.1370
    X: D(   82) --> V(    3) amplitude =  0.4630
    X: D(   82) --> V(    4) amplitude = -0.7541
    X: D(   82) --> V(    5) amplitude = -0.0979
    X: D(   82) --> V(    9) amplitude = -0.1200
    X: D(   82) --> V(   10) amplitude =  0.1736
    X: D(   82) --> V(   11) amplitude = -0.1069
    X: D(   82) --> V(   12) amplitude = -0.1644
    X: D(   82) --> V(   14) amplitude = -0.0853
    X: D(   82) --> V(   15) amplitude = -0.1052

 ---------------------------------------------------

                    Orbital Energies (a.u.)
 --------------------------------------------------------------

 Alpha MOs
 -- Occupied --
-19.2995 -19.2481 -19.2466 -19.2456 -19.2439 -19.2380 -19.1517 -10.3617
-10.3466 -10.3384 -10.3357 -10.3251 -10.3244 -10.3218 -10.3211 -10.2984
-10.2959 -10.2828 -10.2758 -10.2597 -10.2585 -10.2435 -10.2327  -1.2256
 -1.1777  -1.1621  -1.1567  -1.1548  -1.1374  -1.0772  -0.9663  -0.9480
 -0.9232  -0.8829  -0.8484  -0.8336  -0.8203  -0.7927  -0.7668  -0.7606
 -0.7165  -0.6984  -0.6855  -0.6713  -0.6482  -0.6410  -0.6283  -0.6184
 -0.5938  -0.5856  -0.5764  -0.5643  -0.5623  -0.5543  -0.5471  -0.5288
 -0.5197  -0.5164  -0.5101  -0.5035  -0.5016  -0.4942  -0.4899  -0.4852
 -0.4705  -0.4634  -0.4591  -0.4570  -0.4531  -0.4495  -0.4358  -0.4347
 -0.4232  -0.4169  -0.4050  -0.3796  -0.3622  -0.3153  -0.3132  -0.2943
 -0.2779  -0.2490

                    Cartesian Multipole Moments
                  LMN = < X^L Y^M Z^N >

 Total job time:  4916.48s(wall), 67659.19s(cpu)
        *  Thank you very much for using Q-Chem.  Have a nice day.  *
