 Q-Chem 6.2, Q-Chem, Inc., Pleasanton, CA (2024)
 Q-Chem 6.2.0 for Intel X86 EM64T Linux

User input:
--------------------------------------------------------------
$comment
TDDFT calculation of petunidin Q4 structure
nprocs=16
mem=64gb
$end

$molecule
0 1
C   -0.6855881   -1.6742906   -4.1357058
C   -0.4745577   -0.4442771   -4.8702545
C   -0.2069764    0.7330647   -4.2444989
C   -0.1224796    0.7976752   -2.8129809
C   -0.3403425   -0.4208760   -2.1023080
C   -0.6081642   -1.6145519   -2.7089518
C    0.1566668    1.9339279   -2.0908219
C    0.2240164    1.9139881   -0.6910525
C   -0.0085241    0.7289534   -0.0121758
O   -0.2811430   -0.3805923   -0.7442842
C    0.0053993    0.4682074    1.4201986
C   -0.0191298   -0.8685820    1.8684738
C   -0.0187587   -1.1455046    3.2235219
C    0.0033594   -0.1013380    4.1593166
C    0.0233653    1.2170982    3.7161611
C    0.0259464    1.5070569    2.3617031
O   -0.9293964   -2.7576216   -4.7512930
H   -0.5338309   -0.4826376   -5.9516520
O   -0.0018362    1.9095787   -4.9003369
H   -0.7634659   -2.5103142   -2.1234832
H    0.3363944    2.8719384   -2.6015620
O    0.5290835    3.0500962    0.0039922
H   -0.0315768   -1.6761058    1.1559919
O   -0.0369458   -2.3920318    3.7776366
O    0.0040246   -0.3304821    5.5034188
O    0.0379702    2.2547266    4.6155962
H    0.0281335    2.5403576    2.0602519
C   -0.0722815   -3.5254546    2.9029677
H    0.0342060    1.9005565    5.5170822
H   -0.0879331   -4.3977939    3.5510516
H    0.8157305   -3.5539570    2.2691071
H   -0.9717748   -3.5100313    2.2849760
H   -0.0111516   -1.2862847    5.6676960
H    0.6873666    3.7772329   -0.6153767
H   -0.0744978    1.7712162   -5.8560669
$end

$rem
BASIS  =  def2-ma-TZVP
MEM_STATIC  =  2000
MEM_TOTAL  =  64000
METHOD  =  CAM-B3LYP
SOLVENT_METHOD = pcm
SYMMETRY_IGNORE  =  1
CIS_N_ROOTS = 7
CIS_SINGLETS = true
CIS_TRIPLETS = true
CISTR_PRINT = true
RPA = true
PRINT_ORBITALS = true
SCF_PRINT = 1
SCF_FINAL_PRINT = 2
PRINT_GENERAL_BASIS = true
CISTR_PRINT = true
PRINT_RADII_GYRE = true
MULTIPOLE_ORDER = 5
CIS_AMPL_PRINT = 5
CIS_AMPL_ANAL = true
STATE_ANALYSIS = true
$end

$pcm
Theory   CPCM
Method   SWIG
Solver   Inversion
Radii    Bondi
$end

$solvent
Dielectric         78.39
OpticalDielectric  1.777849
$end

--------------------------------------------------------------

             Standard Nuclear Orientation (Angstroms)
    I     Atom           X                Y                Z
 ----------------------------------------------------------------
    1      C      -0.6855881000    -1.6742906000    -4.1357058000
    2      C      -0.4745577000    -0.4442771000    -4.8702545000
    3      C      -0.2069764000     0.7330647000    -4.2444989000
    4      C      -0.1224796000     0.7976752000    -2.8129809000
    5      C      -0.3403425000    -0.4208760000    -2.1023080000
    6      C      -0.6081642000    -1.6145519000    -2.7089518000
    7      C       0.1566668000     1.9339279000    -2.0908219000
    8      C       0.2240164000     1.9139881000    -0.6910525000
    9      C      -0.0085241000     0.7289534000    -0.0121758000
   10      O      -0.2811430000    -0.3805923000    -0.7442842000
   11      C       0.0053993000     0.4682074000     1.4201986000
   12      C      -0.0191298000    -0.8685820000     1.8684738000
   13      C      -0.0187587000    -1.1455046000     3.2235219000
   14      C       0.0033594000    -0.1013380000     4.1593166000
   15      C       0.0233653000     1.2170982000     3.7161611000
   16      C       0.0259464000     1.5070569000     2.3617031000
   17      O      -0.9293964000    -2.7576216000    -4.7512930000
   18      H      -0.5338309000    -0.4826376000    -5.9516520000
   19      O      -0.0018362000     1.9095787000    -4.9003369000
   20      H      -0.7634659000    -2.5103142000    -2.1234832000
   21      H       0.3363944000     2.8719384000    -2.6015620000
   22      O       0.5290835000     3.0500962000     0.0039922000
   23      H      -0.0315768000    -1.6761058000     1.1559919000
   24      O      -0.0369458000    -2.3920318000     3.7776366000
   25      O       0.0040246000    -0.3304821000     5.5034188000
   26      O       0.0379702000     2.2547266000     4.6155962000
   27      H       0.0281335000     2.5403576000     2.0602519000
   28      C      -0.0722815000    -3.5254546000     2.9029677000
   29      H       0.0342060000     1.9005565000     5.5170822000
   30      H      -0.0879331000    -4.3977939000     3.5510516000
   31      H       0.8157305000    -3.5539570000     2.2691071000
   32      H      -0.9717748000    -3.5100313000     2.2849760000
   33      H      -0.0111516000    -1.2862847000     5.6676960000
   34      H       0.6873666000     3.7772329000    -0.6153767000
   35      H      -0.0744978000     1.7712162000    -5.8560669000
 ----------------------------------------------------------------

   16   -1143.4389096902      4.96e-09  Convergence criterion met
 Total energy = -1143.43890969

             TDDFT Excitation Energies
 ---------------------------------------------------

 Excited state   1: excitation energy (eV) =        1.2733
 Total energy for state   1:                 -1143.39211807 au
    Multiplicity: Triplet
    Trans. Mom.:  0.0000 X   0.0000 Y   0.0000 Z
    Strength   :     0.0000000000
    X: D(   75) --> V(    1) amplitude =  0.0758
    X: D(   77) --> V(    1) amplitude =  0.1180
    X: D(   77) --> V(    2) amplitude = -0.0832
    X: D(   79) --> V(    1) amplitude = -0.0879
    X: D(   81) --> V(    1) amplitude = -0.1374
    X: D(   81) --> V(    2) amplitude = -0.1091
    X: D(   82) --> V(    1) amplitude =  0.9928
    Y: D(   82) --> V(    1) amplitude =  0.2716

 Excited state   2: excitation energy (eV) =        2.5791
 Total energy for state   2:                 -1143.34413102 au
    Multiplicity: Singlet
    Trans. Mom.: -0.2442 X  -0.4848 Y  -3.0754 Z
    Strength   :     0.6162164764
    X: D(   79) --> V(    1) amplitude =  0.1159
    X: D(   81) --> V(    1) amplitude = -0.1612
    X: D(   82) --> V(    1) amplitude =  0.9720

 Excited state   3: excitation energy (eV) =        2.7006
 Total energy for state   3:                 -1143.33966418 au
    Multiplicity: Triplet
    Trans. Mom.:  0.0000 X   0.0000 Y   0.0000 Z
    Strength   :     0.0000000000
    X: D(   76) --> V(    1) amplitude = -0.0887
    X: D(   77) --> V(    1) amplitude =  0.1249
    X: D(   79) --> V(    1) amplitude = -0.2647
    X: D(   79) --> V(    2) amplitude = -0.1092
    X: D(   79) --> V(    7) amplitude = -0.0772
    X: D(   79) --> V(    8) amplitude = -0.0999
    X: D(   80) --> V(    1) amplitude =  0.1119
    X: D(   80) --> V(    5) amplitude = -0.0984
    X: D(   80) --> V(    6) amplitude = -0.0975
    X: D(   80) --> V(    8) amplitude = -0.0784
    X: D(   81) --> V(    1) amplitude =  0.7396
    Y: D(   81) --> V(    1) amplitude =  0.0735
    X: D(   81) --> V(    7) amplitude = -0.0777
    X: D(   81) --> V(    8) amplitude = -0.0960
    X: D(   81) --> V(   12) amplitude =  0.1025
    X: D(   82) --> V(    2) amplitude = -0.4892
    Y: D(   82) --> V(    2) amplitude = -0.0935

 Excited state   4: excitation energy (eV) =        2.9113
 Total energy for state   4:                 -1143.33192098 au
    Multiplicity: Triplet
    Trans. Mom.:  0.0000 X   0.0000 Y   0.0000 Z
    Strength   :     0.0000000000
    X: D(   75) --> V(    1) amplitude = -0.0962
    X: D(   77) --> V(    1) amplitude =  0.1735
    X: D(   79) --> V(    1) amplitude =  0.8457
    Y: D(   79) --> V(    1) amplitude =  0.0956
    X: D(   79) --> V(    2) amplitude =  0.0761
    X: D(   79) --> V(    5) amplitude = -0.0755
    X: D(   79) --> V(    6) amplitude = -0.0810
    X: D(   79) --> V(    7) amplitude =  0.1328
    X: D(   79) --> V(    8) amplitude =  0.1765
    X: D(   79) --> V(   12) amplitude =  0.0834
    X: D(   81) --> V(    1) amplitude =  0.0910
    X: D(   81) --> V(    2) amplitude = -0.1076
    X: D(   81) --> V(    7) amplitude = -0.0809
    X: D(   81) --> V(    8) amplitude = -0.1007
    X: D(   82) --> V(    2) amplitude = -0.2576
    X: D(   82) --> V(    8) amplitude = -0.0818

 Excited state   5: excitation energy (eV) =        3.3340
 Total energy for state   5:                 -1143.31638832 au
    Multiplicity: Triplet
    Trans. Mom.:  0.0000 X   0.0000 Y   0.0000 Z
    Strength   :     0.0000000000
    X: D(   80) --> V(    1) amplitude =  0.8756
    X: D(   80) --> V(    2) amplitude = -0.3330
    X: D(   80) --> V(    5) amplitude =  0.0804
    X: D(   80) --> V(    6) amplitude =  0.0774
    X: D(   80) --> V(    7) amplitude = -0.0942
    X: D(   80) --> V(    8) amplitude = -0.1141
    X: D(   80) --> V(   12) amplitude =  0.1109
    X: D(   81) --> V(    1) amplitude = -0.1802
    X: D(   81) --> V(    2) amplitude =  0.1109

 Excited state   6: excitation energy (eV) =        3.5295
 Total energy for state   6:                 -1143.30920230 au
    Multiplicity: Triplet
    Trans. Mom.:  0.0000 X   0.0000 Y   0.0000 Z
    Strength   :     0.0000000000
    X: D(   72) --> V(    1) amplitude =  0.0715
    X: D(   75) --> V(    1) amplitude = -0.1431
    X: D(   77) --> V(    1) amplitude = -0.3449
    X: D(   77) --> V(   30) amplitude =  0.0834
    X: D(   79) --> V(    1) amplitude =  0.0770
    X: D(   80) --> V(    1) amplitude =  0.1427
    X: D(   80) --> V(    2) amplitude = -0.1342
    X: D(   80) --> V(    5) amplitude = -0.0734
    X: D(   80) --> V(    6) amplitude = -0.0730
    X: D(   81) --> V(    1) amplitude =  0.3339
    X: D(   81) --> V(    2) amplitude = -0.4061
    X: D(   82) --> V(    1) amplitude =  0.0722
    X: D(   82) --> V(    2) amplitude =  0.5326
    X: D(   82) --> V(    7) amplitude = -0.1798
    X: D(   82) --> V(    8) amplitude = -0.2444
    X: D(   82) --> V(   11) amplitude = -0.0896
    X: D(   82) --> V(   12) amplitude =  0.2020
    X: D(   82) --> V(   14) amplitude = -0.1078
    X: D(   82) --> V(   17) amplitude = -0.1065
    X: D(   82) --> V(   30) amplitude =  0.0718

 Excited state   7: excitation energy (eV) =        3.6274
 Total energy for state   7:                 -1143.30560496 au
    Multiplicity: Singlet
    Trans. Mom.: -0.0951 X  -0.0795 Y  -1.4753 Z
    Strength   :     0.1947993055
    X: D(   77) --> V(    1) amplitude =  0.1543
    X: D(   79) --> V(    1) amplitude = -0.5266
    X: D(   79) --> V(    2) amplitude = -0.1142
    X: D(   81) --> V(    1) amplitude =  0.7880
    X: D(   82) --> V(    1) amplitude =  0.1862
    X: D(   82) --> V(    2) amplitude = -0.1196

 Excited state   8: excitation energy (eV) =        3.7209
 Total energy for state   8:                 -1143.30216970 au
    Multiplicity: Triplet
    Trans. Mom.:  0.0000 X   0.0000 Y   0.0000 Z
    Strength   :     0.0000000000
    X: D(   78) --> V(    1) amplitude =  0.8803
    X: D(   78) --> V(    2) amplitude =  0.3538
    X: D(   78) --> V(   11) amplitude = -0.0826
    X: D(   78) --> V(   12) amplitude =  0.2216
    X: D(   78) --> V(   14) amplitude = -0.0754
    X: D(   78) --> V(   30) amplitude = -0.1199

 Excited state   9: excitation energy (eV) =        3.8904
 Total energy for state   9:                 -1143.29593933 au
    Multiplicity: Triplet
    Trans. Mom.:  0.0000 X   0.0000 Y   0.0000 Z
    Strength   :     0.0000000000
    X: D(   62) --> V(    1) amplitude =  0.0727
    X: D(   76) --> V(    1) amplitude =  0.1877
    X: D(   77) --> V(    1) amplitude =  0.5173
    X: D(   77) --> V(    2) amplitude =  0.1754
    X: D(   80) --> V(    1) amplitude =  0.0847
    X: D(   80) --> V(    2) amplitude =  0.1055
    X: D(   80) --> V(    5) amplitude =  0.2468
    X: D(   80) --> V(    6) amplitude =  0.2436
    X: D(   80) --> V(    8) amplitude =  0.1509
    X: D(   81) --> V(    1) amplitude =  0.3844
    X: D(   81) --> V(    2) amplitude =  0.2044
    X: D(   81) --> V(   12) amplitude = -0.1036
    X: D(   82) --> V(    1) amplitude =  0.0876
    X: D(   82) --> V(    2) amplitude =  0.4526
    X: D(   82) --> V(   12) amplitude = -0.0949

 Excited state  10: excitation energy (eV) =        3.9211
 Total energy for state  10:                 -1143.29481209 au
    Multiplicity: Singlet
    Trans. Mom.: -0.0210 X  -0.4422 Y  -0.2636 Z
    Strength   :     0.0255033830
    X: D(   79) --> V(    1) amplitude = -0.0850
    X: D(   80) --> V(    1) amplitude =  0.9402
    X: D(   80) --> V(    2) amplitude = -0.1821
    X: D(   81) --> V(    1) amplitude = -0.1419
    X: D(   81) --> V(    2) amplitude =  0.0727
    X: D(   82) --> V(    5) amplitude =  0.0875
    X: D(   82) --> V(    6) amplitude =  0.0860

 Excited state  11: excitation energy (eV) =        3.9992
 Total energy for state  11:                 -1143.29194251 au
    Multiplicity: Singlet
    Trans. Mom.: -0.0101 X  -0.0228 Y   0.0066 Z
    Strength   :     0.0000651737
    X: D(   78) --> V(    1) amplitude =  0.9127
    X: D(   78) --> V(    2) amplitude =  0.3110
    X: D(   78) --> V(   12) amplitude =  0.1861
    X: D(   78) --> V(   30) amplitude = -0.0928

 Excited state  12: excitation energy (eV) =        4.2086
 Total energy for state  12:                 -1143.28424811 au
    Multiplicity: Singlet
    Trans. Mom.:  0.1150 X   0.7117 Y  -0.5263 Z
    Strength   :     0.0821459945
    X: D(   79) --> V(    1) amplitude =  0.7394
    X: D(   79) --> V(    2) amplitude =  0.0930
    X: D(   80) --> V(    1) amplitude =  0.1474
    X: D(   81) --> V(    1) amplitude =  0.5264
    X: D(   81) --> V(    2) amplitude = -0.1898
    X: D(   82) --> V(    2) amplitude =  0.2416
    X: D(   82) --> V(    7) amplitude = -0.0822
    X: D(   82) --> V(    8) amplitude = -0.1118

 Excited state  13: excitation energy (eV) =        4.7379
 Total energy for state  13:                 -1143.26479521 au
    Multiplicity: Singlet
    Trans. Mom.: -0.3582 X  -1.5681 Y  -0.0437 Z
    Strength   :     0.3005352262
    X: D(   77) --> V(    1) amplitude =  0.1860
    X: D(   79) --> V(    1) amplitude = -0.2923
    X: D(   79) --> V(    8) amplitude =  0.0898
    X: D(   81) --> V(    1) amplitude = -0.0763
    X: D(   81) --> V(    8) amplitude =  0.0710
    X: D(   81) --> V(   12) amplitude = -0.0764
    X: D(   82) --> V(    2) amplitude =  0.8741
    X: D(   82) --> V(    6) amplitude =  0.0742
    X: D(   82) --> V(    7) amplitude = -0.1209
    X: D(   82) --> V(    8) amplitude = -0.1530

 Excited state  14: excitation energy (eV) =        5.2078
 Total energy for state  14:                 -1143.24752751 au
    Multiplicity: Singlet
    Trans. Mom.:  0.2469 X   0.9709 Y   0.2045 Z
    Strength   :     0.1333871485
    X: D(   76) --> V(    1) amplitude =  0.1421
    X: D(   77) --> V(    1) amplitude =  0.8951
    X: D(   79) --> V(    1) amplitude =  0.0926
    X: D(   81) --> V(    1) amplitude = -0.1227
    X: D(   81) --> V(    2) amplitude =  0.1030
    X: D(   82) --> V(    2) amplitude = -0.2257
    X: D(   82) --> V(    7) amplitude = -0.0991
    X: D(   82) --> V(    8) amplitude = -0.1665
    X: D(   82) --> V(   12) amplitude = -0.0902

 ---------------------------------------------------

                    Orbital Energies (a.u.)
 --------------------------------------------------------------

 Alpha MOs
 -- Occupied --
-19.2941 -19.2473 -19.2462 -19.2454 -19.2448 -19.2373 -19.1546 -10.3575
-10.3455 -10.3371 -10.3366 -10.3242 -10.3230 -10.3210 -10.3207 -10.2997
-10.2955 -10.2857 -10.2821 -10.2581 -10.2566 -10.2459 -10.2368  -1.2205
 -1.1766  -1.1613  -1.1595  -1.1541  -1.1365  -1.0779  -0.9664  -0.9532
 -0.9206  -0.8776  -0.8489  -0.8360  -0.8247  -0.7912  -0.7676  -0.7500
 -0.7154  -0.7133  -0.6916  -0.6520  -0.6486  -0.6411  -0.6315  -0.6098
 -0.5989  -0.5838  -0.5805  -0.5724  -0.5612  -0.5535  -0.5467  -0.5291
 -0.5213  -0.5158  -0.5125  -0.5051  -0.5044  -0.4910  -0.4886  -0.4841
 -0.4690  -0.4625  -0.4581  -0.4571  -0.4524  -0.4438  -0.4380  -0.4350
 -0.4218  -0.4161  -0.4080  -0.3918  -0.3510  -0.3145  -0.3062  -0.2935
 -0.2900  -0.2488

                    Cartesian Multipole Moments
                  LMN = < X^L Y^M Z^N >

 Total job time:  5592.07s(wall), 76407.18s(cpu)
        *  Thank you very much for using Q-Chem.  Have a nice day.  *
