 Q-Chem 6.2, Q-Chem, Inc., Pleasanton, CA (2024)
 Q-Chem 6.2.0 for Intel X86 EM64T Linux

User input:
--------------------------------------------------------------
$comment
TDDFT calculation of petunidin Q2 structure
nprocs=16
mem=64gb
$end

$molecule
0 1
C    0.7783321   -1.5838236   -4.0849116
C    0.7112781   -0.3947439   -4.8401081
C    0.4965083    0.8075362   -4.2134924
C    0.3362707    0.8700588   -2.7963960
C    0.4165795   -0.3511995   -2.0982873
C    0.6336820   -1.5789711   -2.7103676
C    0.1093373    2.0352897   -2.0655013
C   -0.0465574    2.0549344   -0.6610786
C    0.0569452    0.7698710   -0.0188499
O    0.2743845   -0.3321714   -0.7614519
C   -0.0402628    0.4745855    1.3947177
C    0.1599301   -0.8517655    1.8444733
C    0.0698587   -1.1469379    3.1895024
C   -0.2230074   -0.1372621    4.1217996
C   -0.4220534    1.1666422    3.6806983
C   -0.3304773    1.4776760    2.3345412
O    0.9891412   -2.7846419   -4.6938352
H    0.8297376   -0.4338706   -5.9167121
O    0.4227364    1.9882927   -4.8827283
H    0.6857124   -2.4897050   -2.1315609
H    0.0452007    2.9856842   -2.5792990
O   -0.2578233    3.1448159   -0.0173143
H    0.3846230   -1.6340416    1.1390510
O    0.2454250   -2.3799600    3.7469437
O   -0.3161995   -0.3940066    5.4557999
O   -0.7092990    2.1712107    4.5736538
H   -0.4850792    2.4933326    2.0123105
H    1.0669209   -2.6694718   -5.6519490
H    0.5505121    1.8424084   -5.8314985
C    0.5699664   -3.4769339    2.8860051
H   -0.7391309    1.8090786    5.4714504
H    0.6638870   -4.3436900    3.5349698
H    1.5156659   -3.2988944    2.3710183
H   -0.2251879   -3.6468498    2.1580368
H   -0.1433783   -1.3358397    5.6126309
$end

$rem
BASIS  =  def2-ma-TZVP
MEM_STATIC  =  2000
MEM_TOTAL  =  64000
METHOD  =  CAM-B3LYP
SOLVENT_METHOD = pcm
SYMMETRY_IGNORE  =  1
CIS_N_ROOTS = 7
CIS_SINGLETS = true
CIS_TRIPLETS = true
CISTR_PRINT = true
RPA = true
PRINT_ORBITALS = true
SCF_PRINT = 1
SCF_FINAL_PRINT = 2
PRINT_GENERAL_BASIS = true
CISTR_PRINT = true
PRINT_RADII_GYRE = true
MULTIPOLE_ORDER = 5
CIS_AMPL_PRINT = 5
CIS_AMPL_ANAL = true
STATE_ANALYSIS = true
$end

$pcm
Theory   CPCM
Method   SWIG
Solver   Inversion
Radii    Bondi
$end

$solvent
Dielectric         78.39
OpticalDielectric  1.777849
$end

--------------------------------------------------------------

             Standard Nuclear Orientation (Angstroms)
    I     Atom           X                Y                Z
 ----------------------------------------------------------------
    1      C       0.7783321000    -1.5838236000    -4.0849116000
    2      C       0.7112781000    -0.3947439000    -4.8401081000
    3      C       0.4965083000     0.8075362000    -4.2134924000
    4      C       0.3362707000     0.8700588000    -2.7963960000
    5      C       0.4165795000    -0.3511995000    -2.0982873000
    6      C       0.6336820000    -1.5789711000    -2.7103676000
    7      C       0.1093373000     2.0352897000    -2.0655013000
    8      C      -0.0465574000     2.0549344000    -0.6610786000
    9      C       0.0569452000     0.7698710000    -0.0188499000
   10      O       0.2743845000    -0.3321714000    -0.7614519000
   11      C      -0.0402628000     0.4745855000     1.3947177000
   12      C       0.1599301000    -0.8517655000     1.8444733000
   13      C       0.0698587000    -1.1469379000     3.1895024000
   14      C      -0.2230074000    -0.1372621000     4.1217996000
   15      C      -0.4220534000     1.1666422000     3.6806983000
   16      C      -0.3304773000     1.4776760000     2.3345412000
   17      O       0.9891412000    -2.7846419000    -4.6938352000
   18      H       0.8297376000    -0.4338706000    -5.9167121000
   19      O       0.4227364000     1.9882927000    -4.8827283000
   20      H       0.6857124000    -2.4897050000    -2.1315609000
   21      H       0.0452007000     2.9856842000    -2.5792990000
   22      O      -0.2578233000     3.1448159000    -0.0173143000
   23      H       0.3846230000    -1.6340416000     1.1390510000
   24      O       0.2454250000    -2.3799600000     3.7469437000
   25      O      -0.3161995000    -0.3940066000     5.4557999000
   26      O      -0.7092990000     2.1712107000     4.5736538000
   27      H      -0.4850792000     2.4933326000     2.0123105000
   28      H       1.0669209000    -2.6694718000    -5.6519490000
   29      H       0.5505121000     1.8424084000    -5.8314985000
   30      C       0.5699664000    -3.4769339000     2.8860051000
   31      H      -0.7391309000     1.8090786000     5.4714504000
   32      H       0.6638870000    -4.3436900000     3.5349698000
   33      H       1.5156659000    -3.2988944000     2.3710183000
   34      H      -0.2251879000    -3.6468498000     2.1580368000
   35      H      -0.1433783000    -1.3358397000     5.6126309000
 ----------------------------------------------------------------

   16   -1143.4356155803      6.17e-09  Convergence criterion met
 Total energy = -1143.43561558

             TDDFT Excitation Energies
 ---------------------------------------------------

 Excited state   1: excitation energy (eV) =        0.3721
 Total energy for state   1:                 -1143.42194167 au
    Multiplicity: Triplet
    Trans. Mom.:  0.0000 X   0.0000 Y   0.0000 Z
    Strength   :     0.0000000000
    X: D(   69) --> V(    1) amplitude = -0.1577
    Y: D(   69) --> V(    1) amplitude = -0.1338
    X: D(   72) --> V(    1) amplitude =  0.0726
    X: D(   77) --> V(    1) amplitude =  0.1224
    Y: D(   77) --> V(    1) amplitude =  0.0876
    X: D(   77) --> V(   11) amplitude = -0.0945
    Y: D(   77) --> V(   11) amplitude = -0.0784
    X: D(   78) --> V(    1) amplitude = -0.1736
    Y: D(   78) --> V(    1) amplitude = -0.1276
    X: D(   78) --> V(    2) amplitude =  0.0799
    Y: D(   78) --> V(    2) amplitude =  0.0750
    X: D(   78) --> V(   11) amplitude =  0.0741
    X: D(   80) --> V(    7) amplitude =  0.0848
    Y: D(   80) --> V(    7) amplitude =  0.0766
    X: D(   81) --> V(    1) amplitude = -0.1487
    Y: D(   81) --> V(    1) amplitude = -0.1002
    X: D(   81) --> V(    5) amplitude =  0.1096
    Y: D(   81) --> V(    5) amplitude =  0.0936
    X: D(   81) --> V(   11) amplitude =  0.0814
    X: D(   82) --> V(    1) amplitude =  1.2823
    Y: D(   82) --> V(    1) amplitude =  0.8505
    X: D(   82) --> V(   11) amplitude = -0.0881

 Excited state   2: excitation energy (eV) =        2.2893
 Total energy for state   2:                 -1143.35148716 au
    Multiplicity: Singlet
    Trans. Mom.:  0.2775 X   0.2200 Y  -3.0631 Z
    Strength   :     0.5332449592
    X: D(   81) --> V(    1) amplitude = -0.0943
    X: D(   82) --> V(    1) amplitude =  0.9926
    Y: D(   82) --> V(    1) amplitude = -0.0966

 Excited state   3: excitation energy (eV) =        2.6449
 Total energy for state   3:                 -1143.33841644 au
    Multiplicity: Triplet
    Trans. Mom.:  0.0000 X   0.0000 Y   0.0000 Z
    Strength   :     0.0000000000
    X: D(   69) --> V(    1) amplitude =  0.0734
    X: D(   76) --> V(    1) amplitude =  0.1368
    X: D(   78) --> V(    5) amplitude =  0.1641
    X: D(   80) --> V(    1) amplitude = -0.0905
    X: D(   80) --> V(    7) amplitude =  0.1502
    X: D(   81) --> V(    1) amplitude =  0.8234
    Y: D(   81) --> V(    1) amplitude =  0.0938
    X: D(   81) --> V(   11) amplitude =  0.1373
    X: D(   82) --> V(    1) amplitude =  0.1047
    X: D(   82) --> V(    2) amplitude =  0.3553
    Y: D(   82) --> V(    2) amplitude =  0.0756
    X: D(   82) --> V(    5) amplitude =  0.2043
    X: D(   82) --> V(   11) amplitude =  0.1073

 Excited state   4: excitation energy (eV) =        3.0612
 Total energy for state   4:                 -1143.32311900 au
    Multiplicity: Triplet
    Trans. Mom.:  0.0000 X   0.0000 Y   0.0000 Z
    Strength   :     0.0000000000
    X: D(   79) --> V(    1) amplitude =  0.5273
    X: D(   79) --> V(   11) amplitude = -0.0740
    X: D(   80) --> V(    1) amplitude = -0.7908
    X: D(   80) --> V(    2) amplitude = -0.1431
    X: D(   80) --> V(    5) amplitude = -0.1526
    X: D(   80) --> V(   11) amplitude = -0.1231
    X: D(   81) --> V(    1) amplitude = -0.0984

 Excited state   5: excitation energy (eV) =        3.0892
 Total energy for state   5:                 -1143.32209008 au
    Multiplicity: Triplet
    Trans. Mom.:  0.0000 X   0.0000 Y   0.0000 Z
    Strength   :     0.0000000000
    X: D(   79) --> V(    1) amplitude =  0.8283
    X: D(   79) --> V(   11) amplitude = -0.0958
    X: D(   80) --> V(    1) amplitude =  0.4977
    X: D(   80) --> V(    2) amplitude =  0.1010
    X: D(   80) --> V(    5) amplitude =  0.1047
    X: D(   80) --> V(   11) amplitude =  0.0935

 Excited state   6: excitation energy (eV) =        3.2368
 Total energy for state   6:                 -1143.31666519 au
    Multiplicity: Singlet
    Trans. Mom.:  0.0001 X   0.0180 Y  -0.0036 Z
    Strength   :     0.0000265944
    X: D(   79) --> V(    1) amplitude =  0.9843
    X: D(   79) --> V(   11) amplitude = -0.1103
    X: D(   80) --> V(    1) amplitude = -0.0783

 Excited state   7: excitation energy (eV) =        3.2852
 Total energy for state   7:                 -1143.31488696 au
    Multiplicity: Triplet
    Trans. Mom.:  0.0000 X   0.0000 Y   0.0000 Z
    Strength   :     0.0000000000
    X: D(   69) --> V(    1) amplitude =  0.0722
    X: D(   77) --> V(    1) amplitude = -0.2060
    X: D(   77) --> V(    2) amplitude =  0.0798
    X: D(   78) --> V(    1) amplitude =  0.7462
    X: D(   78) --> V(    2) amplitude =  0.0962
    X: D(   78) --> V(    5) amplitude = -0.1808
    X: D(   80) --> V(    5) amplitude = -0.0819
    X: D(   80) --> V(    7) amplitude =  0.0722
    X: D(   81) --> V(    1) amplitude =  0.0710
    X: D(   81) --> V(    2) amplitude =  0.1355
    X: D(   81) --> V(    5) amplitude =  0.3184
    X: D(   81) --> V(    7) amplitude =  0.0727
    X: D(   82) --> V(    1) amplitude =  0.0915
    X: D(   82) --> V(    2) amplitude = -0.1946
    X: D(   82) --> V(    5) amplitude = -0.1875
    X: D(   82) --> V(   11) amplitude =  0.2528
    X: D(   82) --> V(   14) amplitude =  0.1156
    X: D(   82) --> V(   17) amplitude =  0.0806

 Excited state   8: excitation energy (eV) =        3.4402
 Total energy for state   8:                 -1143.30918942 au
    Multiplicity: Triplet
    Trans. Mom.:  0.0000 X   0.0000 Y   0.0000 Z
    Strength   :     0.0000000000
    X: D(   77) --> V(   32) amplitude = -0.0738
    X: D(   78) --> V(    1) amplitude =  0.2203
    X: D(   78) --> V(    2) amplitude = -0.1239
    X: D(   78) --> V(    5) amplitude = -0.0938
    X: D(   78) --> V(   32) amplitude =  0.0709
    X: D(   81) --> V(    1) amplitude = -0.3469
    X: D(   81) --> V(    2) amplitude = -0.1291
    X: D(   81) --> V(    5) amplitude =  0.0733
    X: D(   82) --> V(    2) amplitude =  0.8480
    Y: D(   82) --> V(    2) amplitude =  0.0787
    X: D(   82) --> V(   32) amplitude = -0.1241

 Excited state   9: excitation energy (eV) =        3.6390
 Total energy for state   9:                 -1143.30188313 au
    Multiplicity: Singlet
    Trans. Mom.: -0.0730 X  -0.1828 Y   1.1460 Z
    Strength   :     0.1205503014
    X: D(   76) --> V(    1) amplitude = -0.0752
    X: D(   78) --> V(    1) amplitude =  0.2847
    X: D(   80) --> V(    1) amplitude =  0.3758
    X: D(   81) --> V(    1) amplitude = -0.8485
    X: D(   82) --> V(    2) amplitude = -0.1611

 Excited state  10: excitation energy (eV) =        3.6801
 Total energy for state  10:                 -1143.30037264 au
    Multiplicity: Singlet
    Trans. Mom.:  0.1453 X  -0.3381 Y  -0.8155 Z
    Strength   :     0.0721654577
    X: D(   79) --> V(    1) amplitude =  0.0748
    X: D(   80) --> V(    1) amplitude =  0.8933
    X: D(   80) --> V(    2) amplitude =  0.0839
    X: D(   80) --> V(    5) amplitude =  0.0957
    X: D(   81) --> V(    1) amplitude =  0.3660
    X: D(   81) --> V(    7) amplitude = -0.0859
    X: D(   82) --> V(    7) amplitude = -0.1283

 Excited state  11: excitation energy (eV) =        3.7141
 Total energy for state  11:                 -1143.29912359 au
    Multiplicity: Triplet
    Trans. Mom.:  0.0000 X   0.0000 Y   0.0000 Z
    Strength   :     0.0000000000
    X: D(   72) --> V(    1) amplitude =  0.1096
    X: D(   75) --> V(    1) amplitude =  0.2103
    X: D(   76) --> V(    1) amplitude = -0.0917
    X: D(   77) --> V(    1) amplitude =  0.8182
    X: D(   77) --> V(    2) amplitude = -0.1097
    X: D(   77) --> V(    5) amplitude = -0.1465
    X: D(   78) --> V(    1) amplitude =  0.3014
    X: D(   81) --> V(    2) amplitude =  0.1033
    X: D(   81) --> V(   11) amplitude =  0.1128
    X: D(   82) --> V(    5) amplitude =  0.2463
    X: D(   82) --> V(   11) amplitude = -0.0957
    X: D(   82) --> V(   32) amplitude =  0.1042

 Excited state  12: excitation energy (eV) =        4.2181
 Total energy for state  12:                 -1143.28060493 au
    Multiplicity: Singlet
    Trans. Mom.:  0.0939 X   0.0428 Y  -1.0781 Z
    Strength   :     0.1212073262
    X: D(   76) --> V(    1) amplitude =  0.0968
    X: D(   77) --> V(    1) amplitude = -0.2901
    X: D(   78) --> V(    1) amplitude =  0.8490
    X: D(   81) --> V(    1) amplitude =  0.2881
    X: D(   81) --> V(    2) amplitude =  0.1306
    X: D(   82) --> V(    2) amplitude = -0.2274

 Excited state  13: excitation energy (eV) =        4.4730
 Total energy for state  13:                 -1143.27123459 au
    Multiplicity: Singlet
    Trans. Mom.: -0.1045 X   0.7034 Y   0.1559 Z
    Strength   :     0.0580873387
    X: D(   77) --> V(    1) amplitude = -0.5542
    X: D(   77) --> V(    5) amplitude =  0.0794
    X: D(   78) --> V(    1) amplitude =  0.0956
    X: D(   78) --> V(   11) amplitude = -0.0749
    X: D(   81) --> V(    1) amplitude = -0.1509
    X: D(   81) --> V(    2) amplitude = -0.1672
    X: D(   82) --> V(    2) amplitude =  0.7382
    X: D(   82) --> V(    5) amplitude = -0.2020

 Excited state  14: excitation energy (eV) =        4.9204
 Total energy for state  14:                 -1143.25479245 au
    Multiplicity: Singlet
    Trans. Mom.: -0.2969 X   1.7157 Y   0.7717 Z
    Strength   :     0.4372760728
    X: D(   76) --> V(    1) amplitude = -0.0798
    X: D(   77) --> V(    1) amplitude =  0.7066
    X: D(   78) --> V(    1) amplitude =  0.3542
    X: D(   78) --> V(    2) amplitude = -0.0925
    X: D(   80) --> V(    7) amplitude =  0.0899
    X: D(   82) --> V(    2) amplitude =  0.5437
    X: D(   82) --> V(    5) amplitude =  0.0883
    X: D(   82) --> V(    7) amplitude =  0.0979

 ---------------------------------------------------

                    Orbital Energies (a.u.)
 --------------------------------------------------------------

 Alpha MOs
 -- Occupied --
-19.3047 -19.2483 -19.2480 -19.2458 -19.2446 -19.2360 -19.1357 -10.3519
-10.3453 -10.3413 -10.3391 -10.3239 -10.3232 -10.3187 -10.3157 -10.2954
-10.2820 -10.2778 -10.2759 -10.2617 -10.2570 -10.2548 -10.2525  -1.2303
 -1.1770  -1.1636  -1.1587  -1.1533  -1.1360  -1.0640  -0.9715  -0.9523
 -0.9019  -0.8873  -0.8495  -0.8386  -0.8224  -0.7911  -0.7687  -0.7464
 -0.7123  -0.7087  -0.6961  -0.6759  -0.6462  -0.6370  -0.6317  -0.6036
 -0.5990  -0.5862  -0.5741  -0.5700  -0.5614  -0.5535  -0.5462  -0.5179
 -0.5165  -0.5164  -0.5128  -0.5104  -0.5008  -0.4968  -0.4867  -0.4848
 -0.4695  -0.4613  -0.4572  -0.4549  -0.4490  -0.4448  -0.4343  -0.4327
 -0.4281  -0.4180  -0.4117  -0.3866  -0.3368  -0.3181  -0.3055  -0.2920
 -0.2901  -0.2385

                    Cartesian Multipole Moments
                  LMN = < X^L Y^M Z^N >

 Total job time:  5070.55s(wall), 68454.44s(cpu)
        *  Thank you very much for using Q-Chem.  Have a nice day.  *
