 Q-Chem 6.2, Q-Chem, Inc., Pleasanton, CA (2024)
 Q-Chem 6.2.0 for Intel X86 EM64T Linux

User input:
--------------------------------------------------------------
$comment
TDDFT calculation of petunidin H structure
nprocs=16
mem=64gb
$end

$molecule
1 1
C   -4.9684955    1.2674089    0.2262491
C   -4.8336688   -0.1033493    0.5173243
C   -3.5907803   -0.6363055    0.7600292
C   -2.4356682    0.1970358    0.7195706
C   -2.6336988    1.5612291    0.4199732
C   -3.8723121    2.1177030    0.1703664
C   -1.1305759   -0.2384120    0.9499554
C   -0.0604254    0.6372428    0.8985060
C   -0.2909215    1.9921531    0.6025550
O   -1.5559136    2.3776558    0.3806797
C    0.6665989    3.0684375    0.4724836
C    0.2673498    4.2503623   -0.1891378
C    1.1524875    5.3015226   -0.3122429
C    2.4448063    5.2061555    0.2322936
C    2.8352875    4.0409850    0.8898679
C    1.9619269    2.9748266    1.0054882
O   -6.1856132    1.8098427   -0.0101939
H   -5.7141588   -0.7338816    0.5509188
O   -3.3848173   -1.9423036    1.0455560
H   -3.9827530    3.1688302   -0.0521602
H   -0.9376660   -1.2821486    1.1650157
O    1.2157693    0.2213123    1.0963122
H   -0.7203509    4.3249754   -0.6124711
O    0.9015733    6.4831065   -0.9393458
O    3.3391550    6.2204671    0.1382888
O    4.0889627    3.9323822    1.4329215
H    2.2927507    2.0959720    1.5322003
H   -6.8807822    1.1387692    0.0628590
H   -4.2243928   -2.4261517    1.0482849
H    1.2320451   -0.7322550    1.2658365
H    2.9365962    6.9652226   -0.3366616
C   -0.3823661    6.6758847   -1.5460775
H    4.5840012    4.7509545    1.2804625
H   -0.3522533    7.6676660   -1.9891209
H   -1.1748685    6.6301467   -0.7971690
H   -0.5575480    5.9298074   -2.3230081
$end

$rem
BASIS  =  def2-ma-TZVP
MEM_STATIC  =  2000
MEM_TOTAL  =  64000
METHOD  =  CAM-B3LYP
SOLVENT_METHOD = pcm
SYMMETRY_IGNORE  =  1
CIS_N_ROOTS = 7
CIS_SINGLETS = true
CIS_TRIPLETS = true
CISTR_PRINT = true
RPA = true
PRINT_ORBITALS = true
SCF_PRINT = 1
SCF_FINAL_PRINT = 2
PRINT_GENERAL_BASIS = true
CISTR_PRINT = true
PRINT_RADII_GYRE = true
MULTIPOLE_ORDER = 5
CIS_AMPL_PRINT = 5
CIS_AMPL_ANAL = true
STATE_ANALYSIS = true
$end

$pcm
Theory   CPCM
Method   SWIG
Solver   Inversion
Radii    Bondi
$end

$solvent
Dielectric         78.39
OpticalDielectric  1.777849
$end

--------------------------------------------------------------

             Standard Nuclear Orientation (Angstroms)
    I     Atom           X                Y                Z
 ----------------------------------------------------------------
    1      C      -4.9684955000     1.2674089000     0.2262491000
    2      C      -4.8336688000    -0.1033493000     0.5173243000
    3      C      -3.5907803000    -0.6363055000     0.7600292000
    4      C      -2.4356682000     0.1970358000     0.7195706000
    5      C      -2.6336988000     1.5612291000     0.4199732000
    6      C      -3.8723121000     2.1177030000     0.1703664000
    7      C      -1.1305759000    -0.2384120000     0.9499554000
    8      C      -0.0604254000     0.6372428000     0.8985060000
    9      C      -0.2909215000     1.9921531000     0.6025550000
   10      O      -1.5559136000     2.3776558000     0.3806797000
   11      C       0.6665989000     3.0684375000     0.4724836000
   12      C       0.2673498000     4.2503623000    -0.1891378000
   13      C       1.1524875000     5.3015226000    -0.3122429000
   14      C       2.4448063000     5.2061555000     0.2322936000
   15      C       2.8352875000     4.0409850000     0.8898679000
   16      C       1.9619269000     2.9748266000     1.0054882000
   17      O      -6.1856132000     1.8098427000    -0.0101939000
   18      H      -5.7141588000    -0.7338816000     0.5509188000
   19      O      -3.3848173000    -1.9423036000     1.0455560000
   20      H      -3.9827530000     3.1688302000    -0.0521602000
   21      H      -0.9376660000    -1.2821486000     1.1650157000
   22      O       1.2157693000     0.2213123000     1.0963122000
   23      H      -0.7203509000     4.3249754000    -0.6124711000
   24      O       0.9015733000     6.4831065000    -0.9393458000
   25      O       3.3391550000     6.2204671000     0.1382888000
   26      O       4.0889627000     3.9323822000     1.4329215000
   27      H       2.2927507000     2.0959720000     1.5322003000
   28      H      -6.8807822000     1.1387692000     0.0628590000
   29      H      -4.2243928000    -2.4261517000     1.0482849000
   30      H       1.2320451000    -0.7322550000     1.2658365000
   31      H       2.9365962000     6.9652226000    -0.3366616000
   32      C      -0.3823661000     6.6758847000    -1.5460775000
   33      H       4.5840012000     4.7509545000     1.2804625000
   34      H      -0.3522533000     7.6676660000    -1.9891209000
   35      H      -1.1748685000     6.6301467000    -0.7971690000
   36      H      -0.5575480000     5.9298074000    -2.3230081000
 ----------------------------------------------------------------

   15   -1143.8924815486      7.19e-09  Convergence criterion met
 Total energy = -1143.89248155

             TDDFT Excitation Energies
 ---------------------------------------------------

 Excited state   1: excitation energy (eV) =        1.5857
 Total energy for state   1:                 -1143.83420784 au
    Multiplicity: Triplet
    Trans. Mom.:  0.0000 X   0.0000 Y   0.0000 Z
    Strength   :     0.0000000000
    X: D(   78) --> V(    1) amplitude = -0.1787
    X: D(   78) --> V(   10) amplitude =  0.0745
    X: D(   79) --> V(    1) amplitude = -0.1462
    X: D(   80) --> V(    1) amplitude = -0.2467
    X: D(   80) --> V(    2) amplitude = -0.0850
    X: D(   80) --> V(    4) amplitude = -0.0879
    X: D(   82) --> V(    1) amplitude =  0.9401
    Y: D(   82) --> V(    1) amplitude =  0.1914

 Excited state   2: excitation energy (eV) =        2.5336
 Total energy for state   2:                 -1143.79937246 au
    Multiplicity: Triplet
    Trans. Mom.:  0.0000 X   0.0000 Y   0.0000 Z
    Strength   :     0.0000000000
    X: D(   77) --> V(    1) amplitude = -0.1386
    X: D(   79) --> V(    4) amplitude = -0.1249
    X: D(   80) --> V(    1) amplitude =  0.8391
    Y: D(   80) --> V(    1) amplitude =  0.0881
    X: D(   80) --> V(   10) amplitude =  0.1020
    X: D(   81) --> V(    1) amplitude =  0.1610
    X: D(   81) --> V(    6) amplitude =  0.0950
    X: D(   82) --> V(    1) amplitude =  0.2010
    X: D(   82) --> V(    2) amplitude = -0.3457
    Y: D(   82) --> V(    2) amplitude = -0.0765
    X: D(   82) --> V(    4) amplitude = -0.1405
    X: D(   82) --> V(   10) amplitude =  0.1098

 Excited state   3: excitation energy (eV) =        2.7307
 Total energy for state   3:                 -1143.79212910 au
    Multiplicity: Singlet
    Trans. Mom.:  2.5963 X   2.0731 Y  -0.1587 Z
    Strength   :     0.7401685421
    X: D(   80) --> V(    1) amplitude = -0.2672
    X: D(   82) --> V(    1) amplitude =  0.9530

 Excited state   4: excitation energy (eV) =        2.8230
 Total energy for state   4:                 -1143.78873803 au
    Multiplicity: Triplet
    Trans. Mom.:  0.0000 X   0.0000 Y   0.0000 Z
    Strength   :     0.0000000000
    X: D(   80) --> V(    1) amplitude = -0.1662
    X: D(   81) --> V(    1) amplitude =  0.9147
    X: D(   81) --> V(    2) amplitude = -0.2607
    X: D(   81) --> V(    4) amplitude = -0.1478
    X: D(   81) --> V(   10) amplitude =  0.1491

 Excited state   5: excitation energy (eV) =        3.2701
 Total energy for state   5:                 -1143.77230767 au
    Multiplicity: Triplet
    Trans. Mom.:  0.0000 X   0.0000 Y   0.0000 Z
    Strength   :     0.0000000000
    X: D(   73) --> V(    1) amplitude =  0.1135
    X: D(   75) --> V(    1) amplitude =  0.1286
    X: D(   78) --> V(    1) amplitude =  0.0721
    X: D(   79) --> V(    1) amplitude =  0.8678
    Y: D(   79) --> V(    1) amplitude =  0.0768
    X: D(   79) --> V(    4) amplitude =  0.1286
    X: D(   80) --> V(    2) amplitude = -0.2221
    X: D(   80) --> V(    3) amplitude = -0.0911
    X: D(   80) --> V(    4) amplitude = -0.2032
    X: D(   82) --> V(    1) amplitude =  0.0822
    X: D(   82) --> V(    2) amplitude = -0.0770
    X: D(   82) --> V(   10) amplitude =  0.1839

 Excited state   6: excitation energy (eV) =        3.4075
 Total energy for state   6:                 -1143.76725984 au
    Multiplicity: Singlet
    Trans. Mom.:  0.2194 X   0.5133 Y  -0.1959 Z
    Strength   :     0.0292178316
    X: D(   79) --> V(    1) amplitude = -0.1448
    X: D(   80) --> V(    1) amplitude =  0.4107
    X: D(   81) --> V(    1) amplitude =  0.8706
    X: D(   81) --> V(    2) amplitude = -0.1003
    X: D(   82) --> V(    1) amplitude =  0.1146

 Excited state   7: excitation energy (eV) =        3.4544
 Total energy for state   7:                 -1143.76553351 au
    Multiplicity: Singlet
    Trans. Mom.:  1.0037 X   0.5190 Y   0.0588 Z
    Strength   :     0.1083427311
    X: D(   79) --> V(    1) amplitude = -0.2131
    X: D(   80) --> V(    1) amplitude =  0.8178
    X: D(   81) --> V(    1) amplitude = -0.4468
    X: D(   81) --> V(    2) amplitude =  0.0832
    X: D(   82) --> V(    1) amplitude =  0.2152
    X: D(   82) --> V(    2) amplitude = -0.0899

 Excited state   8: excitation energy (eV) =        3.6751
 Total energy for state   8:                 -1143.75742389 au
    Multiplicity: Triplet
    Trans. Mom.:  0.0000 X   0.0000 Y   0.0000 Z
    Strength   :     0.0000000000
    X: D(   78) --> V(    2) amplitude = -0.0850
    X: D(   78) --> V(   10) amplitude =  0.0834
    X: D(   78) --> V(   27) amplitude =  0.0930
    X: D(   79) --> V(    2) amplitude = -0.2534
    X: D(   79) --> V(   10) amplitude = -0.0772
    X: D(   80) --> V(    1) amplitude =  0.3457
    X: D(   80) --> V(    2) amplitude = -0.2595
    X: D(   80) --> V(    6) amplitude =  0.0807
    X: D(   80) --> V(   10) amplitude = -0.1259
    X: D(   81) --> V(    6) amplitude = -0.1909
    X: D(   82) --> V(    1) amplitude =  0.1091
    X: D(   82) --> V(    2) amplitude =  0.7734
    Y: D(   82) --> V(    2) amplitude =  0.0822

 Excited state   9: excitation energy (eV) =        3.9086
 Total energy for state   9:                 -1143.74884460 au
    Multiplicity: Triplet
    Trans. Mom.:  0.0000 X   0.0000 Y   0.0000 Z
    Strength   :     0.0000000000
    X: D(   64) --> V(    1) amplitude =  0.1271
    X: D(   75) --> V(    1) amplitude = -0.1675
    X: D(   76) --> V(    1) amplitude = -0.0913
    X: D(   77) --> V(    1) amplitude = -0.3161
    X: D(   78) --> V(    1) amplitude =  0.7411
    X: D(   78) --> V(    2) amplitude =  0.1573
    X: D(   79) --> V(    1) amplitude = -0.1902
    X: D(   79) --> V(    2) amplitude = -0.1422
    X: D(   80) --> V(    1) amplitude = -0.0890
    X: D(   80) --> V(    2) amplitude = -0.0904
    X: D(   80) --> V(    3) amplitude = -0.0961
    X: D(   80) --> V(    4) amplitude = -0.2142
    X: D(   80) --> V(   10) amplitude = -0.0988
    X: D(   81) --> V(    6) amplitude =  0.1163
    X: D(   82) --> V(    4) amplitude =  0.1088
    X: D(   82) --> V(   10) amplitude =  0.2382

 Excited state  10: excitation energy (eV) =        4.0809
 Total energy for state  10:                 -1143.74251305 au
    Multiplicity: Triplet
    Trans. Mom.:  0.0000 X   0.0000 Y   0.0000 Z
    Strength   :     0.0000000000
    X: D(   75) --> V(    1) amplitude =  0.0989
    X: D(   79) --> V(    1) amplitude = -0.0910
    X: D(   79) --> V(    2) amplitude =  0.1380
    X: D(   79) --> V(    3) amplitude = -0.0974
    X: D(   79) --> V(    4) amplitude = -0.2263
    X: D(   80) --> V(    1) amplitude = -0.1354
    X: D(   80) --> V(    2) amplitude = -0.5036
    X: D(   80) --> V(    3) amplitude =  0.1658
    X: D(   80) --> V(    4) amplitude =  0.3908
    X: D(   80) --> V(   10) amplitude =  0.0759
    X: D(   81) --> V(    6) amplitude =  0.4527
    X: D(   81) --> V(    7) amplitude =  0.1394
    X: D(   81) --> V(   10) amplitude =  0.0914
    X: D(   82) --> V(    1) amplitude = -0.0816
    X: D(   82) --> V(    2) amplitude =  0.1039
    X: D(   82) --> V(    3) amplitude = -0.1133
    X: D(   82) --> V(    4) amplitude = -0.2632
    X: D(   82) --> V(    6) amplitude = -0.0906
    X: D(   82) --> V(   10) amplitude =  0.1120

 Excited state  11: excitation energy (eV) =        4.2970
 Total energy for state  11:                 -1143.73457102 au
    Multiplicity: Singlet
    Trans. Mom.: -0.2308 X   0.5186 Y  -0.1481 Z
    Strength   :     0.0362324321
    X: D(   79) --> V(    1) amplitude =  0.8778
    X: D(   79) --> V(    2) amplitude =  0.0841
    X: D(   80) --> V(    1) amplitude =  0.2618
    X: D(   80) --> V(    2) amplitude = -0.2823
    X: D(   82) --> V(    1) amplitude =  0.0935
    X: D(   82) --> V(    2) amplitude =  0.1395
    X: D(   82) --> V(    4) amplitude = -0.0940

 Excited state  12: excitation energy (eV) =        4.9145
 Total energy for state  12:                 -1143.71187531 au
    Multiplicity: Singlet
    Trans. Mom.:  0.9168 X  -0.6056 Y   0.1864 Z
    Strength   :     0.1495434341
    X: D(   78) --> V(    1) amplitude = -0.3266
    X: D(   79) --> V(    1) amplitude = -0.2239
    X: D(   79) --> V(    4) amplitude =  0.1116
    X: D(   80) --> V(    2) amplitude = -0.2534
    X: D(   80) --> V(    6) amplitude =  0.0829
    X: D(   80) --> V(   10) amplitude = -0.1147
    X: D(   81) --> V(    6) amplitude = -0.0780
    X: D(   82) --> V(    2) amplitude =  0.8231
    X: D(   82) --> V(    4) amplitude = -0.1412

 Excited state  13: excitation energy (eV) =        5.2480
 Total energy for state  13:                 -1143.69962199 au
    Multiplicity: Singlet
    Trans. Mom.:  0.0719 X  -0.8302 Y   0.1216 Z
    Strength   :     0.0911902392
    X: D(   77) --> V(    1) amplitude = -0.1430
    X: D(   78) --> V(    1) amplitude =  0.7104
    X: D(   79) --> V(    2) amplitude = -0.1561
    X: D(   79) --> V(   10) amplitude = -0.0824
    X: D(   80) --> V(    2) amplitude =  0.2972
    X: D(   80) --> V(    4) amplitude = -0.1507
    X: D(   81) --> V(    2) amplitude =  0.0789
    X: D(   82) --> V(    2) amplitude =  0.4373
    X: D(   82) --> V(    3) amplitude =  0.1101
    X: D(   82) --> V(    4) amplitude =  0.2448
    X: D(   82) --> V(    6) amplitude =  0.1552

 Excited state  14: excitation energy (eV) =        5.3584
 Total energy for state  14:                 -1143.69556322 au
    Multiplicity: Singlet
    Trans. Mom.: -1.2607 X   0.0582 Y  -0.1845 Z
    Strength   :     0.2135772498
    X: D(   77) --> V(    1) amplitude =  0.0935
    X: D(   78) --> V(    1) amplitude = -0.3612
    X: D(   79) --> V(    1) amplitude =  0.1625
    X: D(   79) --> V(    6) amplitude =  0.0978
    X: D(   80) --> V(    2) amplitude =  0.2743
    X: D(   80) --> V(    4) amplitude = -0.0901
    X: D(   80) --> V(    6) amplitude =  0.1563
    X: D(   80) --> V(   10) amplitude =  0.1106
    X: D(   81) --> V(    1) amplitude =  0.1521
    X: D(   81) --> V(    2) amplitude =  0.5280
    X: D(   81) --> V(    4) amplitude =  0.1389
    X: D(   81) --> V(    6) amplitude =  0.1263
    X: D(   81) --> V(   10) amplitude = -0.2398
    X: D(   82) --> V(    3) amplitude =  0.0716
    X: D(   82) --> V(    6) amplitude =  0.4766
    X: D(   82) --> V(    7) amplitude =  0.1447

 ---------------------------------------------------

                    Orbital Energies (a.u.)
 --------------------------------------------------------------

 Alpha MOs
 -- Occupied --
-19.3244 -19.2586 -19.2576 -19.2571 -19.2557 -19.2497 -19.2419 -10.3890
-10.3666 -10.3578 -10.3571 -10.3559 -10.3355 -10.3315 -10.3282 -10.3163
-10.3013 -10.2984 -10.2921 -10.2727 -10.2689 -10.2685 -10.2671  -1.2522
 -1.1852  -1.1763  -1.1758  -1.1722  -1.1600  -1.1435  -0.9895  -0.9687
 -0.9406  -0.9046  -0.8638  -0.8528  -0.8461  -0.8019  -0.7888  -0.7800
 -0.7344  -0.7298  -0.7103  -0.6939  -0.6651  -0.6538  -0.6483  -0.6439
 -0.6259  -0.6054  -0.5985  -0.5961  -0.5797  -0.5735  -0.5606  -0.5591
 -0.5457  -0.5290  -0.5288  -0.5269  -0.5213  -0.5104  -0.5076  -0.5067
 -0.4973  -0.4941  -0.4781  -0.4740  -0.4648  -0.4635  -0.4544  -0.4491
 -0.4450  -0.4342  -0.4238  -0.4225  -0.4026  -0.3751  -0.3335  -0.3045
 -0.3007  -0.2751

                    Cartesian Multipole Moments
                  LMN = < X^L Y^M Z^N >

 Total job time:  5394.32s(wall), 71003.05s(cpu)
        *  Thank you very much for using Q-Chem.  Have a nice day.  *
