 Q-Chem 6.2, Q-Chem, Inc., Pleasanton, CA (2024)
 Q-Chem 6.2.0 for Intel X86 EM64T Linux

User input:
--------------------------------------------------------------
$comment
TDDFT calculation of petunidin Q1 structure
nprocs=16
mem=64gb
$end

$molecule
0 1
C    0.0000000   -1.7111704   -4.1115608
C    0.0000000   -0.5338659   -4.8715316
C    0.0000000    0.6917723   -4.2360785
C    0.0000000    0.7708066   -2.8243329
C    0.0000000   -0.4379850   -2.1149896
C    0.0000000   -1.6810036   -2.7230866
C    0.0000000    1.9718892   -2.0788018
C    0.0000000    1.9602371   -0.7122166
C    0.0000000    0.7209183   -0.0001370
O    0.0000000   -0.4064477   -0.7554849
C    0.0000000    0.4831462    1.3925949
C    0.0000000   -0.8664705    1.8631737
C    0.0000000   -1.1552568    3.2001050
C    0.0000000   -0.1099424    4.1949597
C    0.0000000    1.2323841    3.6880409
C    0.0000000    1.5310793    2.3586003
O    0.0000000   -2.9361730   -4.7094867
H    0.0000000   -0.5869418   -5.9540102
O    0.0000000    1.8697013   -4.9178796
H    0.0000000   -2.5903040   -2.1395292
H    0.0000000    2.9253750   -2.5916157
O    0.0000000    3.1148803    0.0116699
H    0.0000000   -1.6691977    1.1444336
O    0.0000000   -2.4147700    3.7286497
O    0.0000000   -0.3195652    5.4452072
O    0.0000000    2.2281086    4.6368465
H    0.0000000    2.5638169    2.0565387
H    0.0000000   -2.8385851   -5.6727049
H    0.0000000    1.7009720   -5.8711253
H    0.0000000    3.8742860   -0.5893733
C    0.0000000   -3.5222822    2.8267497
H    0.0000000    1.7665354    5.4960396
H    0.0000000   -4.4135089    3.4496690
H    0.8929409   -3.5157843    2.1975384
H   -0.8929409   -3.5157843    2.1975384
$end

$rem
BASIS  =  def2-ma-TZVP
MEM_STATIC  =  2000
MEM_TOTAL  =  64000
METHOD  =  CAM-B3LYP
SOLVENT_METHOD = pcm
SYMMETRY_IGNORE  =  1
CIS_N_ROOTS = 7
CIS_SINGLETS = true
CIS_TRIPLETS = true
CISTR_PRINT = true
RPA = true
PRINT_ORBITALS = true
SCF_PRINT = 1
SCF_FINAL_PRINT = 2
PRINT_GENERAL_BASIS = true
CISTR_PRINT = true
PRINT_RADII_GYRE = true
MULTIPOLE_ORDER = 5
CIS_AMPL_PRINT = 5
CIS_AMPL_ANAL = true
STATE_ANALYSIS = true
$end

$pcm
Theory   CPCM
Method   SWIG
Solver   Inversion
Radii    Bondi
$end

$solvent
Dielectric         78.39
OpticalDielectric  1.777849
$end

--------------------------------------------------------------

             Standard Nuclear Orientation (Angstroms)
    I     Atom           X                Y                Z
 ----------------------------------------------------------------
    1      C       0.0000000000    -1.7111704000    -4.1115608000
    2      C       0.0000000000    -0.5338659000    -4.8715316000
    3      C       0.0000000000     0.6917723000    -4.2360785000
    4      C       0.0000000000     0.7708066000    -2.8243329000
    5      C       0.0000000000    -0.4379850000    -2.1149896000
    6      C       0.0000000000    -1.6810036000    -2.7230866000
    7      C       0.0000000000     1.9718892000    -2.0788018000
    8      C       0.0000000000     1.9602371000    -0.7122166000
    9      C       0.0000000000     0.7209183000    -0.0001370000
   10      O       0.0000000000    -0.4064477000    -0.7554849000
   11      C       0.0000000000     0.4831462000     1.3925949000
   12      C       0.0000000000    -0.8664705000     1.8631737000
   13      C       0.0000000000    -1.1552568000     3.2001050000
   14      C       0.0000000000    -0.1099424000     4.1949597000
   15      C       0.0000000000     1.2323841000     3.6880409000
   16      C       0.0000000000     1.5310793000     2.3586003000
   17      O       0.0000000000    -2.9361730000    -4.7094867000
   18      H       0.0000000000    -0.5869418000    -5.9540102000
   19      O       0.0000000000     1.8697013000    -4.9178796000
   20      H       0.0000000000    -2.5903040000    -2.1395292000
   21      H       0.0000000000     2.9253750000    -2.5916157000
   22      O       0.0000000000     3.1148803000     0.0116699000
   23      H       0.0000000000    -1.6691977000     1.1444336000
   24      O       0.0000000000    -2.4147700000     3.7286497000
   25      O       0.0000000000    -0.3195652000     5.4452072000
   26      O       0.0000000000     2.2281086000     4.6368465000
   27      H       0.0000000000     2.5638169000     2.0565387000
   28      H       0.0000000000    -2.8385851000    -5.6727049000
   29      H       0.0000000000     1.7009720000    -5.8711253000
   30      H       0.0000000000     3.8742860000    -0.5893733000
   31      C       0.0000000000    -3.5222822000     2.8267497000
   32      H       0.0000000000     1.7665354000     5.4960396000
   33      H       0.0000000000    -4.4135089000     3.4496690000
   34      H       0.8929409000    -3.5157843000     2.1975384000
   35      H      -0.8929409000    -3.5157843000     2.1975384000
 ----------------------------------------------------------------

   16   -1143.4402692875      4.83e-09  Convergence criterion met
 Total energy = -1143.44026929

             TDDFT Excitation Energies
 ---------------------------------------------------

 Excited state   1: excitation energy (eV) =        0.8828
 Total energy for state   1:                 -1143.40782563 au
    Multiplicity: Triplet
    Trans. Mom.:  0.0000 X   0.0000 Y   0.0000 Z
    Strength   :     0.0000000000
    X: D(   77) --> V(    1) amplitude = -0.0900
    X: D(   79) --> V(    2) amplitude = -0.0915
    X: D(   81) --> V(    2) amplitude =  0.1013
    X: D(   81) --> V(    4) amplitude = -0.0738
    X: D(   82) --> V(    1) amplitude =  1.0651
    Y: D(   82) --> V(    1) amplitude =  0.4333

 Excited state   2: excitation energy (eV) =        2.4505
 Total energy for state   2:                 -1143.35021628 au
    Multiplicity: Triplet
    Trans. Mom.:  0.0000 X   0.0000 Y   0.0000 Z
    Strength   :     0.0000000000
    X: D(   76) --> V(    1) amplitude = -0.0907
    X: D(   77) --> V(    1) amplitude =  0.1932
    X: D(   77) --> V(   12) amplitude =  0.0885
    X: D(   79) --> V(    1) amplitude = -0.1972
    X: D(   79) --> V(    2) amplitude =  0.0793
    X: D(   79) --> V(    4) amplitude =  0.1136
    X: D(   80) --> V(    1) amplitude = -0.0970
    X: D(   80) --> V(    2) amplitude =  0.0734
    X: D(   81) --> V(    1) amplitude =  0.7903
    Y: D(   81) --> V(    1) amplitude =  0.1024
    X: D(   81) --> V(    2) amplitude = -0.1496
    X: D(   81) --> V(    4) amplitude =  0.1195
    X: D(   82) --> V(    2) amplitude =  0.4267
    Y: D(   82) --> V(    2) amplitude =  0.0772
    X: D(   82) --> V(    4) amplitude = -0.1005
    X: D(   82) --> V(   12) amplitude = -0.0829

 Excited state   3: excitation energy (eV) =        2.5090
 Total energy for state   3:                 -1143.34806444 au
    Multiplicity: Singlet
    Trans. Mom.: -0.0000 X  -0.2278 Y   4.3089 Z
    Strength   :     1.1444917173
    X: D(   81) --> V(    1) amplitude = -0.0925
    X: D(   82) --> V(    1) amplitude =  0.9852
    Y: D(   82) --> V(    1) amplitude = -0.0841

 Excited state   4: excitation energy (eV) =        2.6578
 Total energy for state   4:                 -1143.34259652 au
    Multiplicity: Triplet
    Trans. Mom.:  0.0000 X   0.0000 Y   0.0000 Z
    Strength   :     0.0000000000
    X: D(   79) --> V(    9) amplitude =  0.0807
    X: D(   80) --> V(    1) amplitude =  0.9094
    Y: D(   80) --> V(    1) amplitude =  0.0822
    X: D(   80) --> V(    2) amplitude =  0.1920
    X: D(   80) --> V(    4) amplitude = -0.1180
    X: D(   80) --> V(   12) amplitude = -0.1214
    X: D(   81) --> V(    1) amplitude =  0.1305
    X: D(   81) --> V(    2) amplitude =  0.0850
    X: D(   81) --> V(    9) amplitude = -0.0839
    X: D(   82) --> V(    9) amplitude = -0.1926

 Excited state   5: excitation energy (eV) =        3.4375
 Total energy for state   5:                 -1143.31394212 au
    Multiplicity: Singlet
    Trans. Mom.:  0.0000 X  -0.1579 Y  -0.3036 Z
    Strength   :     0.0098636207
    X: D(   80) --> V(    1) amplitude =  0.8928
    X: D(   80) --> V(    2) amplitude =  0.1133
    X: D(   80) --> V(    4) amplitude = -0.0759
    X: D(   81) --> V(    1) amplitude =  0.4145

 Excited state   6: excitation energy (eV) =        3.4978
 Total energy for state   6:                 -1143.31172698 au
    Multiplicity: Triplet
    Trans. Mom.:  0.0000 X   0.0000 Y   0.0000 Z
    Strength   :     0.0000000000
    X: D(   77) --> V(    1) amplitude = -0.0719
    X: D(   77) --> V(   29) amplitude =  0.0895
    X: D(   79) --> V(    1) amplitude =  0.1538
    X: D(   79) --> V(    2) amplitude =  0.2539
    X: D(   79) --> V(    4) amplitude =  0.1168
    X: D(   80) --> V(    1) amplitude =  0.0806
    X: D(   80) --> V(    9) amplitude =  0.1282
    X: D(   81) --> V(    1) amplitude = -0.4356
    X: D(   81) --> V(    2) amplitude = -0.2146
    X: D(   81) --> V(    4) amplitude =  0.0790
    X: D(   81) --> V(   12) amplitude = -0.1206
    X: D(   81) --> V(   14) amplitude =  0.0801
    X: D(   82) --> V(    2) amplitude =  0.7474

 Excited state   7: excitation energy (eV) =        3.5934
 Total energy for state   7:                 -1143.30821522 au
    Multiplicity: Triplet
    Trans. Mom.:  0.0000 X   0.0000 Y   0.0000 Z
    Strength   :     0.0000000000
    X: D(   75) --> V(    1) amplitude = -0.0982
    X: D(   77) --> V(    1) amplitude = -0.2083
    X: D(   79) --> V(    1) amplitude =  0.7402
    X: D(   79) --> V(    4) amplitude =  0.2196
    X: D(   80) --> V(    4) amplitude = -0.1000
    X: D(   80) --> V(    9) amplitude =  0.1307
    X: D(   81) --> V(    1) amplitude =  0.2487
    X: D(   81) --> V(    2) amplitude = -0.1843
    X: D(   81) --> V(    4) amplitude =  0.3296
    X: D(   81) --> V(   12) amplitude = -0.0874
    X: D(   82) --> V(    2) amplitude = -0.1880
    X: D(   82) --> V(    9) amplitude =  0.1078
    X: D(   82) --> V(   12) amplitude =  0.1569

 Excited state   8: excitation energy (eV) =        3.6492
 Total energy for state   8:                 -1143.30616324 au
    Multiplicity: Singlet
    Trans. Mom.:  0.0000 X  -0.2220 Y   0.2927 Z
    Strength   :     0.0120658618
    X: D(   79) --> V(    1) amplitude =  0.0944
    X: D(   80) --> V(    1) amplitude = -0.4077
    X: D(   81) --> V(    1) amplitude =  0.8795
    X: D(   81) --> V(    2) amplitude = -0.0990
    X: D(   82) --> V(    1) amplitude =  0.1109
    X: D(   82) --> V(    2) amplitude =  0.0988

 Excited state   9: excitation energy (eV) =        3.8352
 Total energy for state   9:                 -1143.29932656 au
    Multiplicity: Triplet
    Trans. Mom.:  0.0000 X   0.0000 Y   0.0000 Z
    Strength   :     0.0000000000
    X: D(   78) --> V(    1) amplitude =  0.9072
    X: D(   78) --> V(    2) amplitude =  0.2615
    X: D(   78) --> V(    4) amplitude = -0.1521
    X: D(   78) --> V(    9) amplitude = -0.0879
    X: D(   78) --> V(   12) amplitude = -0.1978
    X: D(   78) --> V(   18) amplitude =  0.1178
    X: D(   78) --> V(   29) amplitude =  0.0782

 Excited state  10: excitation energy (eV) =        4.0794
 Total energy for state  10:                 -1143.29035329 au
    Multiplicity: Triplet
    Trans. Mom.:  0.0000 X   0.0000 Y   0.0000 Z
    Strength   :     0.0000000000
    X: D(   72) --> V(    1) amplitude =  0.0766
    X: D(   72) --> V(    2) amplitude = -0.0837
    X: D(   75) --> V(    1) amplitude = -0.1694
    X: D(   76) --> V(    1) amplitude = -0.1826
    X: D(   77) --> V(    1) amplitude =  0.2532
    X: D(   77) --> V(    2) amplitude = -0.1350
    X: D(   77) --> V(    4) amplitude =  0.1338
    X: D(   79) --> V(    1) amplitude =  0.3397
    X: D(   79) --> V(    2) amplitude = -0.2973
    X: D(   79) --> V(    4) amplitude = -0.2089
    X: D(   79) --> V(   29) amplitude = -0.0880
    X: D(   80) --> V(    4) amplitude =  0.1154
    X: D(   80) --> V(    9) amplitude =  0.1800
    X: D(   80) --> V(   12) amplitude = -0.0839
    X: D(   81) --> V(    2) amplitude = -0.3027
    X: D(   81) --> V(    4) amplitude = -0.5284
    Y: D(   81) --> V(    4) amplitude = -0.0712
    X: D(   81) --> V(   12) amplitude =  0.0897
    X: D(   82) --> V(    4) amplitude =  0.0995
    X: D(   82) --> V(    9) amplitude = -0.0779
    X: D(   82) --> V(   12) amplitude = -0.2371
    X: D(   82) --> V(   14) amplitude =  0.0807

 Excited state  11: excitation energy (eV) =        4.1404
 Total energy for state  11:                 -1143.28811148 au
    Multiplicity: Singlet
    Trans. Mom.: -0.0040 X   0.0000 Y  -0.0000 Z
    Strength   :     0.0000016475
    X: D(   78) --> V(    1) amplitude =  0.9265
    X: D(   78) --> V(    2) amplitude =  0.2413
    X: D(   78) --> V(    4) amplitude = -0.1408
    X: D(   78) --> V(    9) amplitude = -0.0778
    X: D(   78) --> V(   12) amplitude = -0.1761
    X: D(   78) --> V(   18) amplitude =  0.0920

 Excited state  12: excitation energy (eV) =        4.3518
 Total energy for state  12:                 -1143.28034506 au
    Multiplicity: Singlet
    Trans. Mom.:  0.0000 X  -0.2879 Y   0.3235 Z
    Strength   :     0.0199957053
    X: D(   79) --> V(    1) amplitude =  0.4648
    X: D(   79) --> V(    4) amplitude =  0.0933
    X: D(   81) --> V(    1) amplitude = -0.1570
    X: D(   81) --> V(    2) amplitude = -0.1925
    X: D(   82) --> V(    2) amplitude =  0.8110
    X: D(   82) --> V(    4) amplitude =  0.1270

 Excited state  13: excitation energy (eV) =        4.4820
 Total energy for state  13:                 -1143.27556001 au
    Multiplicity: Singlet
    Trans. Mom.: -0.0000 X   0.8609 Y  -0.5341 Z
    Strength   :     0.1127059081
    X: D(   77) --> V(    1) amplitude = -0.1091
    X: D(   79) --> V(    1) amplitude =  0.7394
    X: D(   79) --> V(    2) amplitude = -0.1602
    X: D(   80) --> V(    2) amplitude =  0.0765
    X: D(   80) --> V(    9) amplitude = -0.0742
    X: D(   81) --> V(    2) amplitude = -0.2579
    X: D(   82) --> V(    2) amplitude = -0.5298
    X: D(   82) --> V(    4) amplitude =  0.1517

 Excited state  14: excitation energy (eV) =        4.9244
 Total energy for state  14:                 -1143.25929921 au
    Multiplicity: Singlet
    Trans. Mom.:  0.0346 X  -0.0000 Y   0.0000 Z
    Strength   :     0.0001446237
    X: D(   79) --> V(    5) amplitude =  0.0913
    X: D(   81) --> V(    5) amplitude = -0.1408
    X: D(   82) --> V(    3) amplitude =  0.7652
    X: D(   82) --> V(    5) amplitude = -0.5309
    X: D(   82) --> V(   10) amplitude =  0.1162
    X: D(   82) --> V(   11) amplitude = -0.1717
    X: D(   82) --> V(   13) amplitude = -0.0991
    X: D(   82) --> V(   15) amplitude = -0.1054

 ---------------------------------------------------

                    Orbital Energies (a.u.)
 --------------------------------------------------------------

 Alpha MOs
 -- Occupied --
-19.2950 -19.2479 -19.2473 -19.2453 -19.2321 -19.2228 -19.1684 -10.3683
-10.3464 -10.3417 -10.3409 -10.3386 -10.3194 -10.3081 -10.3006 -10.2897
-10.2877 -10.2793 -10.2716 -10.2597 -10.2556 -10.2550 -10.2532  -1.2226
 -1.1638  -1.1629  -1.1583  -1.1508  -1.1388  -1.0797  -0.9719  -0.9465
 -0.9186  -0.8829  -0.8462  -0.8358  -0.8204  -0.7871  -0.7636  -0.7543
 -0.7193  -0.6992  -0.6899  -0.6656  -0.6476  -0.6357  -0.6274  -0.6115
 -0.5951  -0.5827  -0.5732  -0.5648  -0.5575  -0.5522  -0.5430  -0.5314
 -0.5196  -0.5156  -0.5139  -0.5050  -0.4993  -0.4963  -0.4934  -0.4849
 -0.4821  -0.4681  -0.4606  -0.4546  -0.4428  -0.4378  -0.4358  -0.4237
 -0.4234  -0.4058  -0.3986  -0.3863  -0.3617  -0.3282  -0.3185  -0.2909
 -0.2875  -0.2360

                    Cartesian Multipole Moments
                  LMN = < X^L Y^M Z^N >

 Total job time:  4794.53s(wall), 65460.33s(cpu)
        *  Thank you very much for using Q-Chem.  Have a nice day.  *
